/*--------------------------------*- C++ -*----------------------------------*\
  =========                 |
  \\      /  F ield         | OpenFOAM: The Open Source CFD Toolbox
   \\    /   O peration     | Website:  https://openfoam.org
    \\  /    A nd           | Version:  6
     \\/     M anipulation  |
\*---------------------------------------------------------------------------*/
FoamFile
{
    version     2.0;
    format      ascii;
    class       polyBoundaryMesh;
    location    "constant/polyMesh";
    object      boundary;
}
// * * * * * * * * * * * * * * * * * * * * * * * * * * * * * * * * * * * * * //

6
(
    defaultFaces
    {
        type            empty;
        inGroups        1(empty);
        nFaces          1776;
        startFace       1715;
    }
    inlet
    {
        type            patch;
        nFaces          24;
        startFace       3491;
    }
    outlet
    {
        type            patch;
        nFaces          24;
        startFace       3515;
    }
    bottom
    {
        type            symmetryPlane;
        inGroups        1(symmetryPlane);
        nFaces          12;
        startFace       3539;
    }
    top
    {
        type            patch;
        nFaces          37;
        startFace       3551;
    }
    obstacle
    {
        type            patch;
        nFaces          25;
        startFace       3588;
    }
)

// ************************************************************************* //
