/*--------------------------------*- C++ -*----------------------------------*\
  =========                 |
  \\      /  F ield         | OpenFOAM: The Open Source CFD Toolbox
   \\    /   O peration     | Website:  https://openfoam.org
    \\  /    A nd           | Version:  6
     \\/     M anipulation  |
\*---------------------------------------------------------------------------*/
FoamFile
{
    version     2.0;
    format      ascii;
    class       polyBoundaryMesh;
    location    "constant/polyMesh";
    object      boundary;
}
// * * * * * * * * * * * * * * * * * * * * * * * * * * * * * * * * * * * * * //

6
(
    empty
    {
        type            empty;
        inGroups        1(empty);
        nFaces          14484;
        startFace       10737;
    }
    inlet
    {
        type            patch;
        nFaces          49;
        startFace       25221;
    }
    outlet
    {
        type            patch;
        nFaces          49;
        startFace       25270;
    }
    bottom
    {
        type            symmetryPlane;
        inGroups        1(symmetryPlane);
        nFaces          25;
        startFace       25319;
    }
    top
    {
        type            patch;
        nFaces          77;
        startFace       25344;
    }
    obstacle
    {
        type            patch;
        nFaces          52;
        startFace       25421;
    }
)

// ************************************************************************* //
