# vtk DataFile Version 2.0
JuliaCFD
ASCII
DATASET UNSTRUCTURED_GRID

POINTS 80 float
0.0 0.0 0.005
0.0 0.25 0.005
0.0 0.5 0.005
0.0 0.75 0.005
0.0 1.0 0.005
0.245745 0.0 0.005
0.23788 0.25 0.005
0.230015 0.5 0.005
0.22215 0.75 0.005
0.214286 1.0 0.005
0.49149 0.0 0.005
0.47576 0.25 0.005
0.460031 0.5 0.005
0.444301 0.75 0.005
0.428571 1.0 0.005
0.693295 0.034083 0.005
0.680686 0.275562 0.005
0.668076 0.517042 0.005
0.655467 0.758521 0.005
0.642857 1.0 0.005
0.894971 0.0696438 0.005
0.885514 0.302233 0.005
0.876057 0.534822 0.005
0.8666 0.767411 0.005
0.857143 1.0 0.005
1.09665 0.105205 0.005
1.09034 0.328904 0.005
1.08404 0.552602 0.005
1.07773 0.776301 0.005
1.07143 1.0 0.005
1.29832 0.140765 0.005
1.29517 0.355574 0.005
1.29202 0.570383 0.005
1.28887 0.785191 0.005
1.28571 1.0 0.005
1.5 0.176326 0.005
1.5 0.382244 0.005
1.5 0.588163 0.005
1.5 0.794081 0.005
1.5 1.0 0.005
0.0 0.0 -0.035
0.0 0.25 -0.035
0.0 0.5 -0.035
0.0 0.75 -0.035
0.0 1.0 -0.035
0.245745 0.0 -0.035
0.23788 0.25 -0.035
0.230015 0.5 -0.035
0.22215 0.75 -0.035
0.214286 1.0 -0.035
0.49149 0.0 -0.035
0.47576 0.25 -0.035
0.460031 0.5 -0.035
0.444301 0.75 -0.035
0.428571 1.0 -0.035
0.693376 0.0340972 -0.035
0.680746 0.275573 -0.035
0.668117 0.517049 -0.035
0.655487 0.758524 -0.035
0.642857 1.0 -0.035
0.895032 0.0696544 -0.035
0.88556 0.302241 -0.035
0.876087 0.534827 -0.035
0.866615 0.767414 -0.035
0.857143 1.0 -0.035
1.09669 0.105212 -0.035
1.09037 0.328909 -0.035
1.08406 0.552606 -0.035
1.07774 0.776303 -0.035
1.07143 1.0 -0.035
1.29834 0.140769 -0.035
1.29519 0.355577 -0.035
1.29203 0.570384 -0.035
1.28887 0.785192 -0.035
1.28571 1.0 -0.035
1.5 0.176326 -0.035
1.5 0.382244 -0.035
1.5 0.588163 -0.035
1.5 0.794081 -0.035
1.5 1.0 -0.035

CELLS 28 252
8 6 46 41 1 5 45 40 0
8 7 47 42 2 6 46 1 41
8 11 51 46 6 10 50 45 5
8 8 48 43 3 7 47 2 42
8 12 52 47 7 11 51 6 46
8 16 56 51 11 15 55 10 50
8 8 48 49 9 4 3 44 43
8 13 53 48 8 12 52 7 47
8 17 57 52 12 16 56 11 51
8 21 61 56 16 20 60 15 55
8 13 53 54 14 9 8 49 48
8 18 58 53 13 17 57 12 52
8 22 62 57 17 21 61 16 56
8 26 66 61 21 25 65 20 60
8 18 58 59 19 14 13 54 53
8 23 63 58 18 22 62 17 57
8 27 67 62 22 26 66 21 61
8 31 71 66 26 30 70 25 65
8 23 63 64 24 19 18 59 58
8 28 68 63 23 27 67 22 62
8 32 72 67 27 31 71 26 66
8 36 76 71 31 35 30 75 70
8 28 68 69 29 24 23 64 63
8 33 73 68 28 32 72 27 67
8 37 77 72 32 36 31 76 71
8 33 73 74 34 29 28 69 68
8 38 78 73 33 37 32 77 72
8 38 39 34 33 74 79 78 73
CELL_TYPES 28
12
12
12
12
12
12
12
12
12
12
12
12
12
12
12
12
12
12
12
12
12
12
12
12
12
12
12
12

CELL_DATA 28
SCALARS P float 1
LOOKUP_TABLE default
107144.80417974415
98710.86843781667
111270.9811657643
97804.64746543313
99111.162106049
122788.19381307394
98307.4479561124
96818.95339837088
101063.79018729499
132757.18578387256
97170.02840026385
96403.88751751144
103812.19752630516
141620.02439361144
96300.98042005608
96527.78960354567
106827.2585817638
149754.63895145836
95739.70731615483
97049.84600635253
109561.7880440971
160491.0436526332
95504.511983796
97662.715007034
109669.4606725207
95495.56498821582
97191.16447474301
95163.35484120676
