# vtk DataFile Version 2.0
JuliaCFD
ASCII
DATASET UNSTRUCTURED_GRID

POINTS 7752 float
0.0 0.0 -0.005
0.02 0.0 -0.005
0.04 0.0 -0.005
0.06 0.0 -0.005
0.08 0.0 -0.005
0.1 0.0 -0.005
0.12 0.0 -0.005
0.14 0.0 -0.005
0.16 0.0 -0.005
0.18 0.0 -0.005
0.2 0.0 -0.005
0.22 0.0 -0.005
0.24 0.0 -0.005
0.26 0.0 -0.005
0.28 0.0 -0.005
0.3 0.0 -0.005
0.32 0.0 -0.005
0.34 0.0 -0.005
0.36 0.0 -0.005
0.38 0.0 -0.005
0.4 0.0 -0.005
0.42 0.0 -0.005
0.44 0.0 -0.005
0.46 0.0 -0.005
0.48 0.0 -0.005
0.5 0.0 -0.005
0.0 0.02 -0.005
0.02 0.02 -0.005
0.04 0.02 -0.005
0.06 0.02 -0.005
0.08 0.02 -0.005
0.1 0.02 -0.005
0.12 0.02 -0.005
0.14 0.02 -0.005
0.16 0.02 -0.005
0.18 0.02 -0.005
0.2 0.02 -0.005
0.22 0.02 -0.005
0.24 0.02 -0.005
0.26 0.02 -0.005
0.28 0.02 -0.005
0.3 0.02 -0.005
0.32 0.02 -0.005
0.34 0.02 -0.005
0.36 0.02 -0.005
0.38 0.02 -0.005
0.4 0.02 -0.005
0.42 0.02 -0.005
0.44 0.02 -0.005
0.46 0.02 -0.005
0.48 0.02 -0.005
0.5 0.02 -0.005
0.0 0.04 -0.005
0.02 0.04 -0.005
0.04 0.04 -0.005
0.06 0.04 -0.005
0.08 0.04 -0.005
0.1 0.04 -0.005
0.12 0.04 -0.005
0.14 0.04 -0.005
0.16 0.04 -0.005
0.18 0.04 -0.005
0.2 0.04 -0.005
0.22 0.04 -0.005
0.24 0.04 -0.005
0.26 0.04 -0.005
0.28 0.04 -0.005
0.3 0.04 -0.005
0.32 0.04 -0.005
0.34 0.04 -0.005
0.36 0.04 -0.005
0.38 0.04 -0.005
0.4 0.04 -0.005
0.42 0.04 -0.005
0.44 0.04 -0.005
0.46 0.04 -0.005
0.48 0.04 -0.005
0.5 0.04 -0.005
0.0 0.06 -0.005
0.02 0.06 -0.005
0.04 0.06 -0.005
0.06 0.06 -0.005
0.08 0.06 -0.005
0.1 0.06 -0.005
0.12 0.06 -0.005
0.14 0.06 -0.005
0.16 0.06 -0.005
0.18 0.06 -0.005
0.2 0.06 -0.005
0.22 0.06 -0.005
0.24 0.06 -0.005
0.26 0.06 -0.005
0.28 0.06 -0.005
0.3 0.06 -0.005
0.32 0.06 -0.005
0.34 0.06 -0.005
0.36 0.06 -0.005
0.38 0.06 -0.005
0.4 0.06 -0.005
0.42 0.06 -0.005
0.44 0.06 -0.005
0.46 0.06 -0.005
0.48 0.06 -0.005
0.5 0.06 -0.005
0.0 0.08 -0.005
0.02 0.08 -0.005
0.04 0.08 -0.005
0.06 0.08 -0.005
0.08 0.08 -0.005
0.1 0.08 -0.005
0.12 0.08 -0.005
0.14 0.08 -0.005
0.16 0.08 -0.005
0.18 0.08 -0.005
0.2 0.08 -0.005
0.22 0.08 -0.005
0.24 0.08 -0.005
0.26 0.08 -0.005
0.28 0.08 -0.005
0.3 0.08 -0.005
0.32 0.08 -0.005
0.34 0.08 -0.005
0.36 0.08 -0.005
0.38 0.08 -0.005
0.4 0.08 -0.005
0.42 0.08 -0.005
0.44 0.08 -0.005
0.46 0.08 -0.005
0.48 0.08 -0.005
0.5 0.08 -0.005
0.0 0.1 -0.005
0.02 0.1 -0.005
0.04 0.1 -0.005
0.06 0.1 -0.005
0.08 0.1 -0.005
0.1 0.1 -0.005
0.12 0.1 -0.005
0.14 0.1 -0.005
0.16 0.1 -0.005
0.18 0.1 -0.005
0.2 0.1 -0.005
0.22 0.1 -0.005
0.24 0.1 -0.005
0.26 0.1 -0.005
0.28 0.1 -0.005
0.3 0.1 -0.005
0.32 0.1 -0.005
0.34 0.1 -0.005
0.36 0.1 -0.005
0.38 0.1 -0.005
0.4 0.1 -0.005
0.42 0.1 -0.005
0.44 0.1 -0.005
0.46 0.1 -0.005
0.48 0.1 -0.005
0.5 0.1 -0.005
0.0 0.12 -0.005
0.02 0.12 -0.005
0.04 0.12 -0.005
0.06 0.12 -0.005
0.08 0.12 -0.005
0.1 0.12 -0.005
0.12 0.12 -0.005
0.14 0.12 -0.005
0.16 0.12 -0.005
0.18 0.12 -0.005
0.2 0.12 -0.005
0.22 0.12 -0.005
0.24 0.12 -0.005
0.26 0.12 -0.005
0.28 0.12 -0.005
0.3 0.12 -0.005
0.32 0.12 -0.005
0.34 0.12 -0.005
0.36 0.12 -0.005
0.38 0.12 -0.005
0.4 0.12 -0.005
0.42 0.12 -0.005
0.44 0.12 -0.005
0.46 0.12 -0.005
0.48 0.12 -0.005
0.5 0.12 -0.005
0.0 0.14 -0.005
0.02 0.14 -0.005
0.04 0.14 -0.005
0.06 0.14 -0.005
0.08 0.14 -0.005
0.1 0.14 -0.005
0.12 0.14 -0.005
0.14 0.14 -0.005
0.16 0.14 -0.005
0.18 0.14 -0.005
0.2 0.14 -0.005
0.22 0.14 -0.005
0.24 0.14 -0.005
0.26 0.14 -0.005
0.28 0.14 -0.005
0.3 0.14 -0.005
0.32 0.14 -0.005
0.34 0.14 -0.005
0.36 0.14 -0.005
0.38 0.14 -0.005
0.4 0.14 -0.005
0.42 0.14 -0.005
0.44 0.14 -0.005
0.46 0.14 -0.005
0.48 0.14 -0.005
0.5 0.14 -0.005
0.0 0.16 -0.005
0.02 0.16 -0.005
0.04 0.16 -0.005
0.06 0.16 -0.005
0.08 0.16 -0.005
0.1 0.16 -0.005
0.12 0.16 -0.005
0.14 0.16 -0.005
0.16 0.16 -0.005
0.18 0.16 -0.005
0.2 0.16 -0.005
0.22 0.16 -0.005
0.24 0.16 -0.005
0.26 0.16 -0.005
0.28 0.16 -0.005
0.3 0.16 -0.005
0.32 0.16 -0.005
0.34 0.16 -0.005
0.36 0.16 -0.005
0.38 0.16 -0.005
0.4 0.16 -0.005
0.42 0.16 -0.005
0.44 0.16 -0.005
0.46 0.16 -0.005
0.48 0.16 -0.005
0.5 0.16 -0.005
0.0 0.18 -0.005
0.02 0.18 -0.005
0.04 0.18 -0.005
0.06 0.18 -0.005
0.08 0.18 -0.005
0.1 0.18 -0.005
0.12 0.18 -0.005
0.14 0.18 -0.005
0.16 0.18 -0.005
0.18 0.18 -0.005
0.2 0.18 -0.005
0.22 0.18 -0.005
0.24 0.18 -0.005
0.26 0.18 -0.005
0.28 0.18 -0.005
0.3 0.18 -0.005
0.32 0.18 -0.005
0.34 0.18 -0.005
0.36 0.18 -0.005
0.38 0.18 -0.005
0.4 0.18 -0.005
0.42 0.18 -0.005
0.44 0.18 -0.005
0.46 0.18 -0.005
0.48 0.18 -0.005
0.5 0.18 -0.005
0.0 0.2 -0.005
0.02 0.2 -0.005
0.04 0.2 -0.005
0.06 0.2 -0.005
0.08 0.2 -0.005
0.1 0.2 -0.005
0.12 0.2 -0.005
0.14 0.2 -0.005
0.16 0.2 -0.005
0.18 0.2 -0.005
0.2 0.2 -0.005
0.22 0.2 -0.005
0.24 0.2 -0.005
0.26 0.2 -0.005
0.28 0.2 -0.005
0.3 0.2 -0.005
0.32 0.2 -0.005
0.34 0.2 -0.005
0.36 0.2 -0.005
0.38 0.2 -0.005
0.4 0.2 -0.005
0.42 0.2 -0.005
0.44 0.2 -0.005
0.46 0.2 -0.005
0.48 0.2 -0.005
0.5 0.2 -0.005
0.0 0.22 -0.005
0.02 0.22 -0.005
0.04 0.22 -0.005
0.06 0.22 -0.005
0.08 0.22 -0.005
0.1 0.22 -0.005
0.12 0.22 -0.005
0.14 0.22 -0.005
0.16 0.22 -0.005
0.18 0.22 -0.005
0.2 0.22 -0.005
0.22 0.22 -0.005
0.24 0.22 -0.005
0.26 0.22 -0.005
0.28 0.22 -0.005
0.3 0.22 -0.005
0.32 0.22 -0.005
0.34 0.22 -0.005
0.36 0.22 -0.005
0.38 0.22 -0.005
0.4 0.22 -0.005
0.42 0.22 -0.005
0.44 0.22 -0.005
0.46 0.22 -0.005
0.48 0.22 -0.005
0.5 0.22 -0.005
0.0 0.24 -0.005
0.02 0.24 -0.005
0.04 0.24 -0.005
0.06 0.24 -0.005
0.08 0.24 -0.005
0.1 0.24 -0.005
0.12 0.24 -0.005
0.14 0.24 -0.005
0.16 0.24 -0.005
0.18 0.24 -0.005
0.2 0.24 -0.005
0.22 0.24 -0.005
0.24 0.24 -0.005
0.26 0.24 -0.005
0.28 0.24 -0.005
0.3 0.24 -0.005
0.32 0.24 -0.005
0.34 0.24 -0.005
0.36 0.24 -0.005
0.38 0.24 -0.005
0.4 0.24 -0.005
0.42 0.24 -0.005
0.44 0.24 -0.005
0.46 0.24 -0.005
0.48 0.24 -0.005
0.5 0.24 -0.005
0.0 0.26 -0.005
0.02 0.26 -0.005
0.04 0.26 -0.005
0.06 0.26 -0.005
0.08 0.26 -0.005
0.1 0.26 -0.005
0.12 0.26 -0.005
0.14 0.26 -0.005
0.16 0.26 -0.005
0.18 0.26 -0.005
0.2 0.26 -0.005
0.22 0.26 -0.005
0.24 0.26 -0.005
0.26 0.26 -0.005
0.28 0.26 -0.005
0.3 0.26 -0.005
0.32 0.26 -0.005
0.34 0.26 -0.005
0.36 0.26 -0.005
0.38 0.26 -0.005
0.4 0.26 -0.005
0.42 0.26 -0.005
0.44 0.26 -0.005
0.46 0.26 -0.005
0.48 0.26 -0.005
0.5 0.26 -0.005
0.0 0.28 -0.005
0.02 0.28 -0.005
0.04 0.28 -0.005
0.06 0.28 -0.005
0.08 0.28 -0.005
0.1 0.28 -0.005
0.12 0.28 -0.005
0.14 0.28 -0.005
0.16 0.28 -0.005
0.18 0.28 -0.005
0.2 0.28 -0.005
0.22 0.28 -0.005
0.24 0.28 -0.005
0.26 0.28 -0.005
0.28 0.28 -0.005
0.3 0.28 -0.005
0.32 0.28 -0.005
0.34 0.28 -0.005
0.36 0.28 -0.005
0.38 0.28 -0.005
0.4 0.28 -0.005
0.42 0.28 -0.005
0.44 0.28 -0.005
0.46 0.28 -0.005
0.48 0.28 -0.005
0.5 0.28 -0.005
0.0 0.3 -0.005
0.02 0.3 -0.005
0.04 0.3 -0.005
0.06 0.3 -0.005
0.08 0.3 -0.005
0.1 0.3 -0.005
0.12 0.3 -0.005
0.14 0.3 -0.005
0.16 0.3 -0.005
0.18 0.3 -0.005
0.2 0.3 -0.005
0.22 0.3 -0.005
0.24 0.3 -0.005
0.26 0.3 -0.005
0.28 0.3 -0.005
0.3 0.3 -0.005
0.32 0.3 -0.005
0.34 0.3 -0.005
0.36 0.3 -0.005
0.38 0.3 -0.005
0.4 0.3 -0.005
0.42 0.3 -0.005
0.44 0.3 -0.005
0.46 0.3 -0.005
0.48 0.3 -0.005
0.5 0.3 -0.005
0.0 0.32 -0.005
0.02 0.32 -0.005
0.04 0.32 -0.005
0.06 0.32 -0.005
0.08 0.32 -0.005
0.1 0.32 -0.005
0.12 0.32 -0.005
0.14 0.32 -0.005
0.16 0.32 -0.005
0.18 0.32 -0.005
0.2 0.32 -0.005
0.22 0.32 -0.005
0.24 0.32 -0.005
0.26 0.32 -0.005
0.28 0.32 -0.005
0.3 0.32 -0.005
0.32 0.32 -0.005
0.34 0.32 -0.005
0.36 0.32 -0.005
0.38 0.32 -0.005
0.4 0.32 -0.005
0.42 0.32 -0.005
0.44 0.32 -0.005
0.46 0.32 -0.005
0.48 0.32 -0.005
0.5 0.32 -0.005
0.0 0.34 -0.005
0.02 0.34 -0.005
0.04 0.34 -0.005
0.06 0.34 -0.005
0.08 0.34 -0.005
0.1 0.34 -0.005
0.12 0.34 -0.005
0.14 0.34 -0.005
0.16 0.34 -0.005
0.18 0.34 -0.005
0.2 0.34 -0.005
0.22 0.34 -0.005
0.24 0.34 -0.005
0.26 0.34 -0.005
0.28 0.34 -0.005
0.3 0.34 -0.005
0.32 0.34 -0.005
0.34 0.34 -0.005
0.36 0.34 -0.005
0.38 0.34 -0.005
0.4 0.34 -0.005
0.42 0.34 -0.005
0.44 0.34 -0.005
0.46 0.34 -0.005
0.48 0.34 -0.005
0.5 0.34 -0.005
0.0 0.36 -0.005
0.02 0.36 -0.005
0.04 0.36 -0.005
0.06 0.36 -0.005
0.08 0.36 -0.005
0.1 0.36 -0.005
0.12 0.36 -0.005
0.14 0.36 -0.005
0.16 0.36 -0.005
0.18 0.36 -0.005
0.2 0.36 -0.005
0.22 0.36 -0.005
0.24 0.36 -0.005
0.26 0.36 -0.005
0.28 0.36 -0.005
0.3 0.36 -0.005
0.32 0.36 -0.005
0.34 0.36 -0.005
0.36 0.36 -0.005
0.38 0.36 -0.005
0.4 0.36 -0.005
0.42 0.36 -0.005
0.44 0.36 -0.005
0.46 0.36 -0.005
0.48 0.36 -0.005
0.5 0.36 -0.005
0.0 0.38 -0.005
0.02 0.38 -0.005
0.04 0.38 -0.005
0.06 0.38 -0.005
0.08 0.38 -0.005
0.1 0.38 -0.005
0.12 0.38 -0.005
0.14 0.38 -0.005
0.16 0.38 -0.005
0.18 0.38 -0.005
0.2 0.38 -0.005
0.22 0.38 -0.005
0.24 0.38 -0.005
0.26 0.38 -0.005
0.28 0.38 -0.005
0.3 0.38 -0.005
0.32 0.38 -0.005
0.34 0.38 -0.005
0.36 0.38 -0.005
0.38 0.38 -0.005
0.4 0.38 -0.005
0.42 0.38 -0.005
0.44 0.38 -0.005
0.46 0.38 -0.005
0.48 0.38 -0.005
0.5 0.38 -0.005
0.0 0.4 -0.005
0.02 0.4 -0.005
0.04 0.4 -0.005
0.06 0.4 -0.005
0.08 0.4 -0.005
0.1 0.4 -0.005
0.12 0.4 -0.005
0.14 0.4 -0.005
0.16 0.4 -0.005
0.18 0.4 -0.005
0.2 0.4 -0.005
0.22 0.4 -0.005
0.24 0.4 -0.005
0.26 0.4 -0.005
0.28 0.4 -0.005
0.3 0.4 -0.005
0.32 0.4 -0.005
0.34 0.4 -0.005
0.36 0.4 -0.005
0.38 0.4 -0.005
0.4 0.4 -0.005
0.42 0.4 -0.005
0.44 0.4 -0.005
0.46 0.4 -0.005
0.48 0.4 -0.005
0.5 0.4 -0.005
0.0 0.42 -0.005
0.02 0.42 -0.005
0.04 0.42 -0.005
0.06 0.42 -0.005
0.08 0.42 -0.005
0.1 0.42 -0.005
0.12 0.42 -0.005
0.14 0.42 -0.005
0.16 0.42 -0.005
0.18 0.42 -0.005
0.2 0.42 -0.005
0.22 0.42 -0.005
0.24 0.42 -0.005
0.26 0.42 -0.005
0.28 0.42 -0.005
0.3 0.42 -0.005
0.32 0.42 -0.005
0.34 0.42 -0.005
0.36 0.42 -0.005
0.38 0.42 -0.005
0.4 0.42 -0.005
0.42 0.42 -0.005
0.44 0.42 -0.005
0.46 0.42 -0.005
0.48 0.42 -0.005
0.5 0.42 -0.005
0.0 0.44 -0.005
0.02 0.44 -0.005
0.04 0.44 -0.005
0.06 0.44 -0.005
0.08 0.44 -0.005
0.1 0.44 -0.005
0.12 0.44 -0.005
0.14 0.44 -0.005
0.16 0.44 -0.005
0.18 0.44 -0.005
0.2 0.44 -0.005
0.22 0.44 -0.005
0.24 0.44 -0.005
0.26 0.44 -0.005
0.28 0.44 -0.005
0.3 0.44 -0.005
0.32 0.44 -0.005
0.34 0.44 -0.005
0.36 0.44 -0.005
0.38 0.44 -0.005
0.4 0.44 -0.005
0.42 0.44 -0.005
0.44 0.44 -0.005
0.46 0.44 -0.005
0.48 0.44 -0.005
0.5 0.44 -0.005
[...]
CELL_DATA 3750
SCALARS P float 1
LOOKUP_TABLE default
99999.99754928847
100000.0050153888
99999.99761731252
99999.99129280857
100000.00487965439
99999.99786536515
100000.01579852926
99999.99149751119
100000.00436965608
99999.99818806979
99999.97278092398
100000.01547226742
99999.99237764807
100000.00370392046
99999.99854816917
100000.04683410651
99999.97325294907
100000.01387592129
99999.99352829985
100000.00296092455
99999.99890102407
99999.9209918809
100000.04618320896
99999.97601692563
100000.01178688419
99999.99481875297
100000.00223453387
99999.99921338391
100000.13253947315
99999.92179221094
100000.04137518766
99999.97963503837
100000.00943674562
99999.99608464209
100000.00159375311
99999.99946683833
99999.77917263168
100000.13175880502
99999.93006383472
100000.03508811697
99999.98371400533
100000.0071284797
99999.99720436422
100000.001076
99999.9996572205
100000.36720900059
99999.77936086153
100000.11747518106
99999.94085244105
100000.02799604676
99999.98771859624
100000.00508600757
99999.99811100442
100000.00068888279
99999.9997905707
99999.39002106429
100000.36919939598
99999.8041221988
100000.09893014705
99999.95300312425
100000.02104898155
99999.99125671164
100000.00343276124
99999.9987899591
100000.00041904466
99999.99987816754
100001.01349468698
99999.38177663843
100000.3258878827
99999.83605030073
100000.07812973062
99999.96484530087
100000.01493193796
99999.99411412775
100000.00219575888
99999.9992637502
100000.00024266963
99999.99993238691
99998.3154450746
100001.03789386172
99999.45830358355
100000.27057367326
99999.87160931349
100000.05801924344
99999.97520627685
100000.01001200522
99999.99624621913
100000.00133366407
99999.99957365093
100000.00013404911
99999.99996413564
100002.80133877511
99998.25189741683
100000.90114458233
99999.55480974965
100000.20959451678
99999.90559894091
100000.0405892904
99999.98348049971
100000.0063576148
99999.9977274557
100000.00077071837
99999.99976456232
100000.00007076796
99999.99998178403
99995.33803809284
100002.95508621058
99998.49904431615
100000.73143939591
99999.65976624643
100000.1521631421
99999.93467771902
100000.02681017667
99999.98958037772
100000.00383108405
99999.99869136188
100000.00042461453
99999.99987577961
100000.0000357712
99999.99999112524
100007.77079921117
99994.98578713945
100002.5034308672
99998.79977688735
100000.55002481403
99999.75683258698
100000.10383616062
99999.9573522618
100000.01675760865
99999.9937651471
100000.0021953109
99999.99928177419
100000.00022345295
99999.99993726343
100000.00001734286
99999.99999584554
99987.00438543592
100008.53861656612
99995.81962668254
100001.9664808967
99999.11446353895
100000.3858246778
99999.83688185975
100000.06680016669
99999.97366407914
100000.00993368455
99999.99645324555
100000.00119866103
99999.99962356965
100000.00011253306
99999.99996961707
100000.00000807832
99999.99999812852
100021.8740632451
99985.41541667629
100006.98603924678
99996.78531286858
100001.41918452692
99999.39227484318
100000.25357697565
99999.89695203066
100000.04062320858
99999.98458178574
100000.0055966631
99999.99807798977
100000.00062485086
99999.9998112413
100000.00005433164
99999.99998586638
100000.00000362087
99999.99999918752
99962.76327669609
100024.95157663985
99988.32162803836
100005.23724379265
99997.73854882398
100000.94960585337
99999.61002250643
100000.15675180247
99999.93850795127
100000.02341083738
99999.9914234018
100000.00300308713
99999.99900583654
100000.00031157015
99999.99990927917
100000.00002519076
99999.99999367486
100000.00000156408
99999.99999965956
100064.6348928811
99957.33496636427
100019.50847355195
99991.50868303566
100003.57691395322
99998.53032163352
100000.59275047122
99999.76500013248
100000.09143869024
99999.96524730533
100000.01281445248
99999.99545742621
100000.00153775603
99999.99950823352
100000.00014887347
99999.99995813741
100000.00001123406
99999.99999727271
100000.00000065204
99999.99999986214
99884.20565215066
100072.59196011486
99967.46035930108
100013.67033390499
99994.39640255165
100002.24768268215
99999.11134651507
100000.34678379027
99999.8665410746
100000.0504752696
99999.98135443975
100000.00667643918
99999.99770461221
100000.0007528484
99999.99976695437
100000.00006828149
99999.99998142356
100000.00000482623
99999.99999886531
100000.00000026272
99999.99999994609
100219.14383388743
99877.5225461195
100054.07425287699
99978.19712794526
100008.66668423261
99996.61358654944
100001.31012943672
99999.49756332855
100000.1908819867
99999.92836038757
100000.02643102607
99999.99048281426
100000.00331749092
99999.99889135818
100000.00035302575
99999.99989401465
100000.00003011034
99999.99999206074
100000.00000200012
99999.99999954397
100000.00000010231
99999.99999997957
99539.49872627688
100203.57324130606
99910.4253281473
100034.30226547793
99986.81845347073
100005.0035053184
99998.10853973666
100000.71198855917
99999.7333157296
100000.09915030582
99999.96356227297
100000.0131571625
99999.99536941788
100000.00157505822
99999.99948728501
100000.00015882567
99999.99995366874
100000.00001278539
99999.99999672739
100000.00000080082
99999.99999982263
100000.00000003872
99999.99999999255
101182.81710135675
99659.26330776048
100147.61752845411
99946.92830724888
100019.58629065038
99992.7939358778
100002.6578056865
99999.01863112218
100000.36219541398
99999.86672022144
100000.04871797655
99999.9824028822
100000.00623799683
99999.99784853097
100000.00071574103
99999.99977257702
100000.00006866644
99999.9999805022
100000.00000523518
99999.9999986972
100000.00000031
99999.99999993315
100000.00000001417
99999.99999999737
95613.95357788564
100604.5609193286
99754.89420000424
100080.11568830689
99971.80261142387
100010.01700859032
99996.39715729145
100001.30497326088
99999.52524575815
100000.17294171896
99999.9371456676
100000.02268698483
99999.99191672873
100000.00282160491
99999.9990438544
100000.00031180942
99999.99990309474
100000.00002857158
99999.99999208952
100000.00000206995
99999.99999949853
100000.00000011627
99999.99999997557
100000.00000000515
99999.99999999907
98636.08561405062
128637.42492672263
100409.63469936413
99882.84273341304
100038.65925503592
99986.76419892887
100004.64390178464
99998.34672524042
100000.59404134889
99999.78540835959
100000.07763984779
99999.97198620433
100000.01002758573
99999.99646302666
100000.00121946663
99999.99959293632
100000.00013042249
99999.99996027582
100000.00001145784
99999.9999969019
100000.00000079127
99999.99999981307
100000.0000000423
99999.99999999133
100000.00000000178
99999.99999999955
99351.96025944824
103350.79866386339
156154.29002531955
100158.24253418893
99951.28856298704
100016.11286885329
99994.44991249786
100001.9537637466
99999.30282670131
100000.25088564806
99999.90931236457
100000.03279560179
99999.98818970301
100000.00421125698
99999.99852392961
100000.00050425071
99999.99983375231
100000.00005245136
99999.99998431235
100000.00000443438
99999.99999882713
100000.00000029278
99999.99999993251
100000.00000001493
99999.999999997
100000.00000000068
99999.9999999998
99852.13055280982
100323.66220851237
113933.19895509639
174040.2459537551
100049.50048223244
99983.27967289642
100005.82446854997
99997.93160894349
100000.74361576917
99999.7305025019
100000.09814196023
99999.96420201487
100000.0130301984
99999.995289205
100000.0016815264
99999.99941192711
100000.0001997251
99999.99993478367
100000.00002030807
99999.99999402396
100000.00000165835
99999.99999957037
100000.00000010511
99999.99999997635
100000.00000000524
99999.99999999903
100000.00000000033
99999.9999999999
99988.10254023364
99804.95095673477
105138.54255194549
127991.4103566853
181896.5407310006
100010.64929317457
99995.43732091418
100001.7774842391
99999.32611013294
100000.25322370119
99999.90521369236
100000.03538452815
99999.98684126337
100000.00486151029
99999.99822331367
100000.00063847438
99999.99977618014
100000.00007585042
99999.9999753984
100000.00000757903
99999.99999780131
100000.00000059999
99999.99999984753
100000.0000000366
99999.99999999201
100000.00000000173
99999.99999999968
100000.00000000015
100000.0000000001
100009.44866802818
99886.91959557259
101030.26134136762
114291.68189457775
141859.58255283316
182277.56472678116
100000.50837014151
99999.18669581914
100000.42188809977
99999.81630424561
100000.07515732643
99999.97015913125
100000.01163812657
99999.99552411372
100000.00169716489
99999.99936748165
100000.00023043032
99999.99991859337
100000.00002764202
99999.99999106665
100000.00000272947
99999.99999921794
100000.00000021026
99999.99999994755
100000.00000001249
99999.99999999738
100000.00000000055
99999.99999999999
100000.00000000007
100000.00000000003
100006.21017795273
99966.88760412113
100106.81093722218
104704.74311023537
126336.35603508983
152598.9396398739
178590.4126958349
99999.11425149308
100000.03627605099
100000.05314496919
99999.96348034861
100000.01818942527
99999.99189223656
100000.00341939232
99999.99860814092
100000.00055068058
99999.99978814725
100000.00007894829
99999.99997170664
100000.00000967206
99999.99999687473
100000.00000094957
99999.99999973069
100000.00000007135
99999.99999998242
100000.00000000412
99999.99999999924
100000.00000000019
99999.99999999994
100000.00000000003
100000.00000000003
100002.19621441768
99995.4983516755
99966.99275984734
101319.70645866833
111406.7436024486
138493.86293257566
159129.29432430197
173417.75932291875
99999.46123667444
100000.10965790479
99999.98476676614
99999.99836262011
100000.00279739905
99999.99827986905
100000.00085548373
99999.99961386393
100000.00016400975
99999.99993364401
100000.00002561403
99999.9999906089
100000.00000325048
99999.99999894564
100000.00000031933
99999.99999991017
100000.00000002353
99999.9999999944
100000.00000000124
99999.99999999985
100000.00000000004
100000.00000000003
100000.00000000003
100000.00000000003
100000.45788357056
100001.31903890142
99976.56876788632
100278.26992258597
104267.72312802274
120472.8344065816
148306.5570783671
161991.68567027187
168264.4384465998
99999.80644913384
100000.05715795507
99999.9855394272
100000.00298044967
99999.99970820319
99999.99983096519
100000.0001573677
99999.99990979016
100000.00004372567
99999.99998077542
100000.00000783501
99999.99999702728
100000.00000104927
99999.99999965678
100000.00000010397
99999.999999971
100000.00000000755
99999.99999999821
100000.00000000045
99999.99999999988
100000.00000000003
100000.00000000003
100000.00000000003
100000.00000000003
99999.99063445952
100001.18614230346
99992.23809045342
100033.64873779516
101335.10911201249
109329.94353710634
130202.39287119768
154741.69790097562
162367.36596016478
163812.97583964546
99999.95603483704
100000.01950837644
99999.99348963419
100000.00189129102
99999.99953138769
100000.00008135663
100000.00000488656
99999.99998540786
100000.00000983205
99999.99999495682
100000.0000022421
99999.9999991048
100000.00000032513
99999.99999989218
100000.00000003279
99999.99999999079
100000.00000000237
99999.99999999945
100000.00000000013
100000.00000000006
100000.00000000003
100000.00000000003
100000.00000000003
100000.00000000003
99999.94030414292
100000.47861043393
99998.57729222614
99994.46972130905
100358.21308929837
103592.16810189252
116152.01422442996
138842.48910221425
158061.55300402973
161370.5340686424
160271.5853702173
99999.99850147551
100000.00435556401
99999.99792867152
100000.00075988674
99999.99975881832
100000.00006569547
99999.99998655477
100000.00000049119
100000.00000151698
99999.99999885843
100000.00000059178
99999.99999974457
100000.00000009668
99999.99999996729
100000.00000001004
99999.9999999971
100000.00000000065
99999.9999999998
100000.00000000009
100000.00000000003
100000.00000000003
100000.00000000003
100000.00000000003
100000.0000000001
99999.96779505217
100000.12156751819
100000.10036368898
99994.78879831405
100077.93750224296
101224.15864580337
107280.99108090428
123735.07730076142
145395.5002646164
159140.61731616323
159803.04622459548
157616.57066560417
100000.00449633258
100000.00016673421
99999.99956207845
100000.00022772187
99999.99991041429
100000.00002997076
99999.99999153402
100000.00000177413
99999.99999992916
99999.99999980783
100000.00000013992
99999.99999993142
100000.00000002756
99999.99999999044
100000.00000000292
99999.9999999991
100000.00000000017
99999.99999999996
100000.0
100000.00000000003
100000.00000000003
100000.00000000003
99999.99999999997
100000.00000000003
99999.98901444058
100000.0109781996
100000.20743982248
99998.03735453643
100011.20382973512
100371.4226392464
102896.44866978544
112224.48195930729
130951.54897948298
149725.88257248298
158890.83425653327
158156.31580170966
155723.66343115282
100000.00278100479
99999.99956776047
99999.99998947386
100000.00004632985
99999.99997406582
100000.00001063237
99999.99999638904
100000.00000100202
99999.99999980944
99999.99999999502
100000.0000000276
99999.99999998297
100000.00000000757
99999.99999999742
100000.00000000086
99999.99999999978
100000.00000000009
99999.99999999997
100000.00000000003
100000.00000000003
100000.00000000003
99999.99999999997
100000.00000000003
100000.00000000003
99999.99762279564
99999.99190486841
100000.099710839
99999.5315909061
99999.4860298435
100099.61527251477
101039.11762492552
105505.73592017985
117879.74548473409
137024.44508853645
152234.71065722962
158014.4758359304
156689.5455396122
154437.68109154902
100000.00107125247
99999.99972435518
100000.00004636003
100000.00000099823
99999.99999466348
100000.00000306731
99999.99999874178
100000.00000041442
99999.99999989464
100000.000000015
100000.00000000342
99999.99999999613
100000.000000002
99999.99999999927
100000.00000000025
99999.99999999985
100000.00000000007
100000.00000000003
100000.00000000003
100000.00000000003
100000.00000000004
100000.00000000003
100000.00000000003
100000.00000000003
99999.99995644762
99999.99417437607
100000.03105603854
99999.9568602731
99998.88715721648
100022.67745359353
100341.0867070357
102227.45832277783
108967.80318084058
123582.0885610762
141679.51303784116
153485.91446414564
156965.9366438587
155511.93770461107
153613.02186405216
100000.00029041657
99999.99988848092
100000.00002908926
99999.99999517182
99999.99999973386
100000.00000067652
99999.99999962855
100000.00000014473
99999.99999995653
100000.00000000918
99999.99999999952
99999.99999999924
100000.00000000061
99999.99999999978
100000.00000000015
100000.0
100000.0
100000.00000000003
100000.00000000003
100000.00000000001
100000.00000000003
100000.00000000003
100000.00000000003
100000.00000000003
100000.00026021742
99999.99764141702
100000.00597409563
100000.02510139419
99999.50907612713
100003.86941904458
100102.41380209183
100828.49662661558
104006.7191673426
113005.46359277736
128800.71870927392
145020.74204250087
153987.8624042963
156000.11098863083
154645.60733432116
153141.9479144982
100000.00004211249
99999.99996649697
100000.00001203071
99999.99999696249
100000.00000044168
100000.00000007347
99999.9999999092
100000.00000004441
99999.99999998455
100000.00000000387
99999.99999999952
99999.99999999996
100000.00000000012
99999.99999999994
99999.99999999997
100000.00000000007
100000.00000000003
100000.00000000003
100000.0000000001
99999.99999999997
100000.00000000003
100000.00000000003
100000.00000000003
100000.00000000003
100000.00015724517
99999.9993272617
99999.99987482304
100000.0176988745
99999.85557395655
100000.20594258342
100027.83206259663
100286.26946786078
101638.6660968087
106338.31901433648
117256.8049830058
133254.7909198735
147333.0458907814
154116.76579112402
155235.33677429383
154074.00573560013
152929.73507222423
99999.9999903042
99999.9999931611
100000.00000385835
99999.99999871344
100000.00000029695
99999.99999997157
99999.99999998408
100000.00000001189
99999.99999999508
100000.00000000144
99999.9999999997
100000.00000000007
100000.00000000001
100000.00000000007
100000.00000000007
100000.00000000003
100000.00000000003
100000.00000000003
100000.00000000003
100000.00000000003
100000.00000000003
100000.00000000003
100000.00000000003
100000.00000000007
100000.0000616714
99999.99988384143
99999.9992756506
100000.00689222198
99999.97162834373
99999.80780075146
100006.66352981798
100092.18785638335
100623.79910873271
102806.58361950019
109087.21310422356
121396.38053654575
136893.02914266303
148930.2621997509
154115.52401682225
154711.240874133
153760.38573811122
152921.98097627258
99999.99998929775
99999.9999998108
100000.00000094467
99999.99999956353
100000.0000001311
99999.9999999752
99999.9999999997
100000.00000000272
99999.99999999856
100000.00000000047
99999.99999999988
100000.00000000016
100000.0000000001
100000.00000000003
100000.00000000003
100000.00000000003
99999.99999999999
100000.00000000003
100000.00000000003
100000.00000000003
100000.00000000003
100000.00000000003
100000.00000000003
100000.00000000003
100000.00001806256
100000.00000908178
99999.99960860929
100000.0019067427
99999.99875350918
99999.89045778949
100001.31433727665
100027.59131867085
100223.02028382904
101152.86723521812
104313.92686014873
112067.92431253265
125208.54344652845
139806.24938379638
150077.7572809344
154125.5853360562
154423.34976846213
153667.7650148492
153071.81564455808
99999.99999476824
100000.0000006695
100000.00000013398
99999.99999987855
100000.00000004708
99999.99999998815
100000.00000000137
100000.00000000047
99999.99999999956
100000.00000000013
99999.99999999996
100000.00000000006
100000.00000000003
100000.00000000003
100000.00000000003
100000.00000000004
100000.00000000003
100000.00000000003
100000.00000000003
100000.00000000003
100000.00000000003
100000.00000000003
100000.00000000003
100000.00000000003
100000.0000036156
100000.00001815177
99999.99985816615
100000.00033419559
100000.00197823327
99999.96151489587
100000.1667208974
100007.6155237219
100075.13130329335
100445.12622617389
101889.2699048334
106095.68893576592
115098.49188981926
128594.14712265595
142143.16187344573
150971.0613582332
154217.67834586714
154348.75337521877
153759.21692918616
153348.83087088732
99999.99999811113
100000.00000042083
99999.9999999764
99999.99999997407
100000.00000001442
99999.99999999552
100000.0000000009
99999.99999999999
99999.99999999987
100000.00000000003
100000.0000000001
100000.00000000003
100000.00000000003
100000.00000000003
99999.99999999997
100000.00000000003
100000.00000000003
100000.00000000003
100000.00000000003
100000.00000000003
100000.00000000001
100000.00000000003
100000.00000000003
100000.00000000003
100000.00000011284
100000.00000948051
99999.99996171315
99999.99999030781
100000.00114440886
99999.98982437569
99999.98597125156
100001.90765027361
100023.85393610927
100162.62232613993
100775.8685737638
102822.68151130929
108059.35116810534
118037.24648411239
131543.39349496237
144055.2463285422
151739.0119052918
154419.36367048664
154456.30241936634
154001.16145348
153724.9609175214
99999.99999946343
100000.00000017685
99999.9999999716
99999.99999999728
100000.00000000386
99999.99999999856
100000.00000000038
99999.99999999994
99999.99999999991
99999.99999999997
99999.99999999997
100000.00000000003
100000.00000000003
100000.00000000007
99999.99999999997
100000.00000000003
100000.00000000003
100000.00000000003
100000.00000000003
100000.00000000007
100000.00000000003
100000.00000000003
100000.00000000003
100000.00000000003
99999.99999967258
100000.00000351945
99999.9999932507
99999.99996165553
100000.00041597936
99999.99808245398
99999.9808109849
100000.41939219314
100007.12074257064
100056.39425453439
100301.6123446312
101221.00132767622
103920.22504276183
110108.51578740522
120793.97064659042
134099.3979868334
145668.36671231853
152458.70820244536
154732.4695530238
154712.93734681915
154360.95208437042
154179.9830985507
99999.99999988878
100000.00000005962
99999.9999999855
100000.00000000105
100000.00000000083
99999.99999999967
100000.00000000019
99999.99999999996
100000.0
100000.00000000003
99999.99999999997
100000.00000000003
100000.00000000012
100000.00000000003
100000.00000000003
100000.00000000003
100000.00000000003
100000.00000000003
100000.00000000007
100000.00000000003
100000.00000000003
100000.00000000003
100000.00000000003
100000.00000000003
99999.99999979715