# vtk DataFile Version 2.0
JuliaCFD
ASCII
DATASET UNSTRUCTURED_GRID

POINTS 7752 float
0.0 0.0 -0.005
0.02 0.0 -0.005
0.04 0.0 -0.005
0.06 0.0 -0.005
0.08 0.0 -0.005
0.1 0.0 -0.005
0.12 0.0 -0.005
0.14 0.0 -0.005
0.16 0.0 -0.005
0.18 0.0 -0.005
0.2 0.0 -0.005
0.22 0.0 -0.005
0.24 0.0 -0.005
0.26 0.0 -0.005
0.28 0.0 -0.005
0.3 0.0 -0.005
0.32 0.0 -0.005
0.34 0.0 -0.005
0.36 0.0 -0.005
0.38 0.0 -0.005
0.4 0.0 -0.005
0.42 0.0 -0.005
0.44 0.0 -0.005
0.46 0.0 -0.005
0.48 0.0 -0.005
0.5 0.0 -0.005
0.0 0.02 -0.005
0.02 0.02 -0.005
0.04 0.02 -0.005
0.06 0.02 -0.005
0.08 0.02 -0.005
0.1 0.02 -0.005
0.12 0.02 -0.005
0.14 0.02 -0.005
0.16 0.02 -0.005
0.18 0.02 -0.005
0.2 0.02 -0.005
0.22 0.02 -0.005
0.24 0.02 -0.005
0.26 0.02 -0.005
0.28 0.02 -0.005
0.3 0.02 -0.005
0.32 0.02 -0.005
0.34 0.02 -0.005
0.36 0.02 -0.005
0.38 0.02 -0.005
0.4 0.02 -0.005
0.42 0.02 -0.005
0.44 0.02 -0.005
0.46 0.02 -0.005
0.48 0.02 -0.005
0.5 0.02 -0.005
0.0 0.04 -0.005
0.02 0.04 -0.005
0.04 0.04 -0.005
0.06 0.04 -0.005
0.08 0.04 -0.005
0.1 0.04 -0.005
0.12 0.04 -0.005
0.14 0.04 -0.005
0.16 0.04 -0.005
0.18 0.04 -0.005
0.2 0.04 -0.005
0.22 0.04 -0.005
0.24 0.04 -0.005
0.26 0.04 -0.005
0.28 0.04 -0.005
0.3 0.04 -0.005
0.32 0.04 -0.005
0.34 0.04 -0.005
0.36 0.04 -0.005
0.38 0.04 -0.005
0.4 0.04 -0.005
0.42 0.04 -0.005
0.44 0.04 -0.005
0.46 0.04 -0.005
0.48 0.04 -0.005
0.5 0.04 -0.005
0.0 0.06 -0.005
0.02 0.06 -0.005
0.04 0.06 -0.005
0.06 0.06 -0.005
0.08 0.06 -0.005
0.1 0.06 -0.005
0.12 0.06 -0.005
0.14 0.06 -0.005
0.16 0.06 -0.005
0.18 0.06 -0.005
0.2 0.06 -0.005
0.22 0.06 -0.005
0.24 0.06 -0.005
0.26 0.06 -0.005
0.28 0.06 -0.005
0.3 0.06 -0.005
0.32 0.06 -0.005
0.34 0.06 -0.005
0.36 0.06 -0.005
0.38 0.06 -0.005
0.4 0.06 -0.005
0.42 0.06 -0.005
0.44 0.06 -0.005
0.46 0.06 -0.005
0.48 0.06 -0.005
0.5 0.06 -0.005
0.0 0.08 -0.005
0.02 0.08 -0.005
0.04 0.08 -0.005
0.06 0.08 -0.005
0.08 0.08 -0.005
0.1 0.08 -0.005
0.12 0.08 -0.005
0.14 0.08 -0.005
0.16 0.08 -0.005
0.18 0.08 -0.005
0.2 0.08 -0.005
0.22 0.08 -0.005
0.24 0.08 -0.005
0.26 0.08 -0.005
0.28 0.08 -0.005
0.3 0.08 -0.005
0.32 0.08 -0.005
0.34 0.08 -0.005
0.36 0.08 -0.005
0.38 0.08 -0.005
0.4 0.08 -0.005
0.42 0.08 -0.005
0.44 0.08 -0.005
0.46 0.08 -0.005
0.48 0.08 -0.005
0.5 0.08 -0.005
0.0 0.1 -0.005
0.02 0.1 -0.005
0.04 0.1 -0.005
0.06 0.1 -0.005
0.08 0.1 -0.005
0.1 0.1 -0.005
0.12 0.1 -0.005
0.14 0.1 -0.005
0.16 0.1 -0.005
0.18 0.1 -0.005
0.2 0.1 -0.005
0.22 0.1 -0.005
0.24 0.1 -0.005
0.26 0.1 -0.005
0.28 0.1 -0.005
0.3 0.1 -0.005
0.32 0.1 -0.005
0.34 0.1 -0.005
0.36 0.1 -0.005
0.38 0.1 -0.005
0.4 0.1 -0.005
0.42 0.1 -0.005
0.44 0.1 -0.005
0.46 0.1 -0.005
0.48 0.1 -0.005
0.5 0.1 -0.005
0.0 0.12 -0.005
0.02 0.12 -0.005
0.04 0.12 -0.005
0.06 0.12 -0.005
0.08 0.12 -0.005
0.1 0.12 -0.005
0.12 0.12 -0.005
0.14 0.12 -0.005
0.16 0.12 -0.005
0.18 0.12 -0.005
0.2 0.12 -0.005
0.22 0.12 -0.005
0.24 0.12 -0.005
0.26 0.12 -0.005
0.28 0.12 -0.005
0.3 0.12 -0.005
0.32 0.12 -0.005
0.34 0.12 -0.005
0.36 0.12 -0.005
0.38 0.12 -0.005
0.4 0.12 -0.005
0.42 0.12 -0.005
0.44 0.12 -0.005
0.46 0.12 -0.005
0.48 0.12 -0.005
0.5 0.12 -0.005
0.0 0.14 -0.005
0.02 0.14 -0.005
0.04 0.14 -0.005
0.06 0.14 -0.005
0.08 0.14 -0.005
0.1 0.14 -0.005
0.12 0.14 -0.005
0.14 0.14 -0.005
0.16 0.14 -0.005
0.18 0.14 -0.005
0.2 0.14 -0.005
0.22 0.14 -0.005
0.24 0.14 -0.005
0.26 0.14 -0.005
0.28 0.14 -0.005
0.3 0.14 -0.005
0.32 0.14 -0.005
0.34 0.14 -0.005
0.36 0.14 -0.005
0.38 0.14 -0.005
0.4 0.14 -0.005
0.42 0.14 -0.005
0.44 0.14 -0.005
0.46 0.14 -0.005
0.48 0.14 -0.005
0.5 0.14 -0.005
0.0 0.16 -0.005
0.02 0.16 -0.005
0.04 0.16 -0.005
0.06 0.16 -0.005
0.08 0.16 -0.005
0.1 0.16 -0.005
0.12 0.16 -0.005
0.14 0.16 -0.005
0.16 0.16 -0.005
0.18 0.16 -0.005
0.2 0.16 -0.005
0.22 0.16 -0.005
0.24 0.16 -0.005
0.26 0.16 -0.005
0.28 0.16 -0.005
0.3 0.16 -0.005
0.32 0.16 -0.005
0.34 0.16 -0.005
0.36 0.16 -0.005
0.38 0.16 -0.005
0.4 0.16 -0.005
0.42 0.16 -0.005
0.44 0.16 -0.005
0.46 0.16 -0.005
0.48 0.16 -0.005
0.5 0.16 -0.005
0.0 0.18 -0.005
0.02 0.18 -0.005
0.04 0.18 -0.005
0.06 0.18 -0.005
0.08 0.18 -0.005
0.1 0.18 -0.005
0.12 0.18 -0.005
0.14 0.18 -0.005
0.16 0.18 -0.005
0.18 0.18 -0.005
0.2 0.18 -0.005
0.22 0.18 -0.005
0.24 0.18 -0.005
0.26 0.18 -0.005
0.28 0.18 -0.005
0.3 0.18 -0.005
0.32 0.18 -0.005
0.34 0.18 -0.005
0.36 0.18 -0.005
0.38 0.18 -0.005
0.4 0.18 -0.005
0.42 0.18 -0.005
0.44 0.18 -0.005
0.46 0.18 -0.005
0.48 0.18 -0.005
0.5 0.18 -0.005
0.0 0.2 -0.005
0.02 0.2 -0.005
0.04 0.2 -0.005
0.06 0.2 -0.005
0.08 0.2 -0.005
0.1 0.2 -0.005
0.12 0.2 -0.005
0.14 0.2 -0.005
0.16 0.2 -0.005
0.18 0.2 -0.005
0.2 0.2 -0.005
0.22 0.2 -0.005
0.24 0.2 -0.005
0.26 0.2 -0.005
0.28 0.2 -0.005
0.3 0.2 -0.005
0.32 0.2 -0.005
0.34 0.2 -0.005
0.36 0.2 -0.005
0.38 0.2 -0.005
0.4 0.2 -0.005
0.42 0.2 -0.005
0.44 0.2 -0.005
0.46 0.2 -0.005
0.48 0.2 -0.005
0.5 0.2 -0.005
0.0 0.22 -0.005
0.02 0.22 -0.005
0.04 0.22 -0.005
0.06 0.22 -0.005
0.08 0.22 -0.005
0.1 0.22 -0.005
0.12 0.22 -0.005
0.14 0.22 -0.005
0.16 0.22 -0.005
0.18 0.22 -0.005
0.2 0.22 -0.005
0.22 0.22 -0.005
0.24 0.22 -0.005
0.26 0.22 -0.005
0.28 0.22 -0.005
0.3 0.22 -0.005
0.32 0.22 -0.005
0.34 0.22 -0.005
0.36 0.22 -0.005
0.38 0.22 -0.005
0.4 0.22 -0.005
0.42 0.22 -0.005
0.44 0.22 -0.005
0.46 0.22 -0.005
0.48 0.22 -0.005
0.5 0.22 -0.005
0.0 0.24 -0.005
0.02 0.24 -0.005
0.04 0.24 -0.005
0.06 0.24 -0.005
0.08 0.24 -0.005
0.1 0.24 -0.005
0.12 0.24 -0.005
0.14 0.24 -0.005
0.16 0.24 -0.005
0.18 0.24 -0.005
0.2 0.24 -0.005
0.22 0.24 -0.005
0.24 0.24 -0.005
0.26 0.24 -0.005
0.28 0.24 -0.005
0.3 0.24 -0.005
0.32 0.24 -0.005
0.34 0.24 -0.005
0.36 0.24 -0.005
0.38 0.24 -0.005
0.4 0.24 -0.005
0.42 0.24 -0.005
0.44 0.24 -0.005
0.46 0.24 -0.005
0.48 0.24 -0.005
0.5 0.24 -0.005
0.0 0.26 -0.005
0.02 0.26 -0.005
0.04 0.26 -0.005
0.06 0.26 -0.005
0.08 0.26 -0.005
0.1 0.26 -0.005
0.12 0.26 -0.005
0.14 0.26 -0.005
0.16 0.26 -0.005
0.18 0.26 -0.005
0.2 0.26 -0.005
0.22 0.26 -0.005
0.24 0.26 -0.005
0.26 0.26 -0.005
0.28 0.26 -0.005
0.3 0.26 -0.005
0.32 0.26 -0.005
0.34 0.26 -0.005
0.36 0.26 -0.005
0.38 0.26 -0.005
0.4 0.26 -0.005
0.42 0.26 -0.005
0.44 0.26 -0.005
0.46 0.26 -0.005
0.48 0.26 -0.005
0.5 0.26 -0.005
0.0 0.28 -0.005
0.02 0.28 -0.005
0.04 0.28 -0.005
0.06 0.28 -0.005
0.08 0.28 -0.005
0.1 0.28 -0.005
0.12 0.28 -0.005
0.14 0.28 -0.005
0.16 0.28 -0.005
0.18 0.28 -0.005
0.2 0.28 -0.005
0.22 0.28 -0.005
0.24 0.28 -0.005
0.26 0.28 -0.005
0.28 0.28 -0.005
0.3 0.28 -0.005
0.32 0.28 -0.005
0.34 0.28 -0.005
0.36 0.28 -0.005
0.38 0.28 -0.005
0.4 0.28 -0.005
0.42 0.28 -0.005
0.44 0.28 -0.005
0.46 0.28 -0.005
0.48 0.28 -0.005
0.5 0.28 -0.005
0.0 0.3 -0.005
0.02 0.3 -0.005
0.04 0.3 -0.005
0.06 0.3 -0.005
0.08 0.3 -0.005
0.1 0.3 -0.005
0.12 0.3 -0.005
0.14 0.3 -0.005
0.16 0.3 -0.005
0.18 0.3 -0.005
0.2 0.3 -0.005
0.22 0.3 -0.005
0.24 0.3 -0.005
0.26 0.3 -0.005
0.28 0.3 -0.005
0.3 0.3 -0.005
0.32 0.3 -0.005
0.34 0.3 -0.005
0.36 0.3 -0.005
0.38 0.3 -0.005
0.4 0.3 -0.005
0.42 0.3 -0.005
0.44 0.3 -0.005
0.46 0.3 -0.005
0.48 0.3 -0.005
0.5 0.3 -0.005
0.0 0.32 -0.005
0.02 0.32 -0.005
0.04 0.32 -0.005
0.06 0.32 -0.005
0.08 0.32 -0.005
0.1 0.32 -0.005
0.12 0.32 -0.005
0.14 0.32 -0.005
0.16 0.32 -0.005
0.18 0.32 -0.005
0.2 0.32 -0.005
0.22 0.32 -0.005
0.24 0.32 -0.005
0.26 0.32 -0.005
0.28 0.32 -0.005
0.3 0.32 -0.005
0.32 0.32 -0.005
0.34 0.32 -0.005
0.36 0.32 -0.005
0.38 0.32 -0.005
0.4 0.32 -0.005
0.42 0.32 -0.005
0.44 0.32 -0.005
0.46 0.32 -0.005
0.48 0.32 -0.005
0.5 0.32 -0.005
0.0 0.34 -0.005
0.02 0.34 -0.005
0.04 0.34 -0.005
0.06 0.34 -0.005
0.08 0.34 -0.005
0.1 0.34 -0.005
0.12 0.34 -0.005
0.14 0.34 -0.005
0.16 0.34 -0.005
0.18 0.34 -0.005
0.2 0.34 -0.005
0.22 0.34 -0.005
0.24 0.34 -0.005
0.26 0.34 -0.005
0.28 0.34 -0.005
0.3 0.34 -0.005
0.32 0.34 -0.005
0.34 0.34 -0.005
0.36 0.34 -0.005
0.38 0.34 -0.005
0.4 0.34 -0.005
0.42 0.34 -0.005
0.44 0.34 -0.005
0.46 0.34 -0.005
0.48 0.34 -0.005
0.5 0.34 -0.005
0.0 0.36 -0.005
0.02 0.36 -0.005
0.04 0.36 -0.005
0.06 0.36 -0.005
0.08 0.36 -0.005
0.1 0.36 -0.005
0.12 0.36 -0.005
0.14 0.36 -0.005
0.16 0.36 -0.005
0.18 0.36 -0.005
0.2 0.36 -0.005
0.22 0.36 -0.005
0.24 0.36 -0.005
0.26 0.36 -0.005
0.28 0.36 -0.005
0.3 0.36 -0.005
0.32 0.36 -0.005
0.34 0.36 -0.005
0.36 0.36 -0.005
0.38 0.36 -0.005
0.4 0.36 -0.005
0.42 0.36 -0.005
0.44 0.36 -0.005
0.46 0.36 -0.005
0.48 0.36 -0.005
0.5 0.36 -0.005
0.0 0.38 -0.005
0.02 0.38 -0.005
0.04 0.38 -0.005
0.06 0.38 -0.005
0.08 0.38 -0.005
0.1 0.38 -0.005
0.12 0.38 -0.005
0.14 0.38 -0.005
0.16 0.38 -0.005
0.18 0.38 -0.005
0.2 0.38 -0.005
0.22 0.38 -0.005
0.24 0.38 -0.005
0.26 0.38 -0.005
0.28 0.38 -0.005
0.3 0.38 -0.005
0.32 0.38 -0.005
0.34 0.38 -0.005
0.36 0.38 -0.005
0.38 0.38 -0.005
0.4 0.38 -0.005
0.42 0.38 -0.005
0.44 0.38 -0.005
0.46 0.38 -0.005
0.48 0.38 -0.005
0.5 0.38 -0.005
0.0 0.4 -0.005
0.02 0.4 -0.005
0.04 0.4 -0.005
0.06 0.4 -0.005
0.08 0.4 -0.005
0.1 0.4 -0.005
0.12 0.4 -0.005
0.14 0.4 -0.005
0.16 0.4 -0.005
0.18 0.4 -0.005
0.2 0.4 -0.005
0.22 0.4 -0.005
0.24 0.4 -0.005
0.26 0.4 -0.005
0.28 0.4 -0.005
0.3 0.4 -0.005
0.32 0.4 -0.005
0.34 0.4 -0.005
0.36 0.4 -0.005
0.38 0.4 -0.005
0.4 0.4 -0.005
0.42 0.4 -0.005
0.44 0.4 -0.005
0.46 0.4 -0.005
0.48 0.4 -0.005
0.5 0.4 -0.005
0.0 0.42 -0.005
0.02 0.42 -0.005
0.04 0.42 -0.005
0.06 0.42 -0.005
0.08 0.42 -0.005
0.1 0.42 -0.005
0.12 0.42 -0.005
0.14 0.42 -0.005
0.16 0.42 -0.005
0.18 0.42 -0.005
0.2 0.42 -0.005
0.22 0.42 -0.005
0.24 0.42 -0.005
0.26 0.42 -0.005
0.28 0.42 -0.005
0.3 0.42 -0.005
0.32 0.42 -0.005
0.34 0.42 -0.005
0.36 0.42 -0.005
0.38 0.42 -0.005
0.4 0.42 -0.005
0.42 0.42 -0.005
0.44 0.42 -0.005
0.46 0.42 -0.005
0.48 0.42 -0.005
0.5 0.42 -0.005
0.0 0.44 -0.005
0.02 0.44 -0.005
0.04 0.44 -0.005
0.06 0.44 -0.005
0.08 0.44 -0.005
0.1 0.44 -0.005
0.12 0.44 -0.005
0.14 0.44 -0.005
0.16 0.44 -0.005
0.18 0.44 -0.005
0.2 0.44 -0.005
0.22 0.44 -0.005
0.24 0.44 -0.005
0.26 0.44 -0.005
0.28 0.44 -0.005
0.3 0.44 -0.005
0.32 0.44 -0.005
0.34 0.44 -0.005
0.36 0.44 -0.005
0.38 0.44 -0.005
0.4 0.44 -0.005
0.42 0.44 -0.005
0.44 0.44 -0.005
0.46 0.44 -0.005
0.48 0.44 -0.005
0.5 0.44 -0.005
[...]
CELL_DATA 3750
SCALARS P float 1
LOOKUP_TABLE default
99999.9963327419
100000.00635933553
99999.99636858939
99999.9897342162
100000.00625592752
99999.9966513404
100000.01735534403
99999.98985742971
100000.0057215475
99999.99702177245
99999.97146121359
100000.01711285705
99999.99072528552
100000.00501646912
99999.99745618358
100000.04774309591
99999.97179836594
100000.01556739525
99999.99186284743
100000.0042002171
99999.99791088533
99999.92087795082
100000.04720836467
99999.97441986931
100000.01354346648
99999.99317922018
100000.00336302507
99999.99834911602
100000.13189475222
99999.9215786837
100000.04262507679
99999.97783869071
100000.0112177659
99999.9945267447
100000.00257770836
99999.99874335386
99999.78076992641
100000.13109922619
99999.92950556
100000.03666595278
99999.98174944891
100000.00886222642
99999.99578891126
100000.0018939288
99999.999077511
100000.36505204572
99999.7811485901
100000.11723465998
99999.9397633079
100000.02989183854
99999.98567639825
100000.00668677053
99999.99688746239
100000.00133569558
99999.99934612797
99999.39269123068
100000.3665860754
99999.8054409715
100000.09938729355
99999.95134570074
100000.02315870694
99999.9892649207
100000.00482621188
99999.99778554213
100000.00090536753
99999.99955193851
100001.01073655431
99999.38521817817
100000.3236947449
99999.8364887909
100000.07939024562
99999.96272445741
100000.01708436501
99999.99229849136
100000.00333696463
99999.99848045666
100000.00059049495
99999.99970282789
99998.31843490698
100001.03407791517
99999.46145962372
100000.26936922688
99999.87095483085
100000.05999093073
99999.9728429983
100000.0120264806
99999.99469819597
100000.00221312887
99999.99899239924
100000.00037093769
99999.99980901933
100002.7981532769
99998.25613989364
100000.89736300187
99999.55689022681
100000.20972223782
99999.90390163347
100000.04300245973
99999.9811319311
100000.00809419958
99999.99648917136
100000.00140928567
99999.99935316032
100000.0002245949
99999.99988094931
99995.34181572136
100002.95067401616
99998.50360653333
100000.72878588994
99999.660256763
100000.15363055238
99999.93224786817
100000.02932469477
99999.98746402732
100000.0052168075
99999.99775824368
100000.00086216388
99999.9995972803
100000.00013113422
99999.99992794768
100007.76642133828
99994.9905468162
100002.49824168919
99998.80311923765
100000.5492060895
99999.7556412227
100000.10629076416
99999.95462259774
100000.01907214896
99999.99201395661
100000.0032235913
99999.99861637573
100000.00050678938
99999.999756424
100000.0000738439
99999.99995762481
99987.00928127531
100008.53368837455
99995.82571108257
100001.96268939693
99999.11564612688
100000.3870090726
99999.83440023942
100000.06970649098
99999.97103905844
100000.01185477684
99999.99510915721
100000.00191091666
99999.99917247618
100000.00028607612
99999.99985665495
100000.00004009488
99999.99997576399
100021.87052374287
99985.42075895493
100006.97924228058
99996.78968036479
100001.4179941964
99999.39106527038
100000.25629975798
99999.89382746871
100000.04346652779
99999.98233690066
100000.00705308911
99999.99711285208
100000.00108654522
99999.99951915431
100000.00015485894
99999.9999177943
100000.00002097568
99999.9999865109
99962.75869372764
100024.94589955767
99988.32910167606
100005.23270141249
99997.73968661367
100000.95124346459
99999.60700259572
100000.16021956991
99999.93537500658
100000.02583628485
99999.9896785152
100000.00401997782
99999.99835248658
100000.00059189211
99999.99972779289
100000.00008016953
99999.9999539938
100000.00001055797
99999.99999268963
100064.6734829871
99957.34011656782
100019.50129364358
99991.51303277687
100003.57645389093
99998.52811887358
100000.59641265836
99999.76114639638
100000.09488220065
99999.96254533147
100000.01466593659
99999.99420623292
100000.0021947789
99999.99908823369
100000.00030805603
99999.99984942083
100000.00003950162
99999.99997483974
100000.00000510075
99999.99999614032
99884.06085778374
100072.59653117064
99967.46465686375
100013.66759434895
99994.39559617024
100002.25107462562
99999.1069581758
100000.3512357711
99999.86276607159
100000.05337913509
99999.97927795521
100000.00795926272
99999.99686714336
100000.00114618547
99999.99950869706
100000.00015236897
99999.99991833934
100000.00001836878
99999.99998653679
100000.000002356
99999.9999980141
100219.56271753507
99877.476999728
100054.0822903088
99978.19548433243
100008.67018692492
99996.60857330215
100001.31566349746
99999.49254474619
100000.19505019752
99999.92523973309
100000.02858632857
99999.98903050288
100000.00413000782
99999.99836254855
100000.00057047405
99999.9997409567
100000.00007090889
99999.99995643436
100000.00000793609
99999.99999294267
100000.0000010339
99999.9999990038
99538.62707612332
100203.72885356637
99910.38392089042
100034.31510536723
99986.81040314944
100005.01100763146
99998.10181514798
100000.71772284477
99999.72887926464
100000.10242617445
99999.96129568915
100000.01458998147
99999.9944305229
100000.00204591254
99999.9991688594
100000.00026856373
99999.99986552435
100000.00003044202
99999.99997705394
100000.00000308403
99999.99999637205
100000.00000042636
99999.9999995127
101183.81670607827
99659.0120351658
100147.71172533973
99946.89498324852
100019.60153886008
99992.78361166874
100002.66584140166
99999.01249037164
100000.36683717914
99999.86343992616
100000.0509550921
99999.98092297387
100000.00709707497
99999.99727949902
100000.00096343676
99999.99958750325
100000.00011774828
99999.99993074893
100000.000011533
99999.99998802718
100000.00000099135
99999.9999981694
100000.00000016188
99999.99999976752
95614.72923981598
100604.33047186954
99754.8715762272
100080.15819444261
99971.78180940438
100010.02930508918
99996.38875707188
100001.31112861398
99999.52087107836
100000.17605606528
99999.93504994745
100000.02403320478
99999.99103331465
100000.00328447431
99999.99871540238
100000.00042711392
99999.99979780336
100000.00004644626
99999.99996432294
100000.00000337571
99999.99999379234
100000.00000018178
99999.99999909248
100000.00000005419
99999.99999989188
98638.74438440613
128625.36312092611
100408.95906202077
99882.92638821913
100038.65888645772
99986.75696527406
100004.65007869976
99998.34201026984
100000.59760798384
99999.78289987553
100000.07939980547
99999.97081134887
100000.01074045541
99999.99597241306
100000.0014386576
99999.99940870264
100000.00017439049
99999.99990072007
100000.0000149787
99999.99998145856
100000.00000026023
99999.99999679429
99999.99999992423
99999.9999995577
100000.00000001404
99999.99999995086
99354.45074133073
103341.69641109009
156262.57932422328
100157.64587126728
99951.41268818796
100016.09010537757
99994.45329387819
100001.95450054099
99999.3013515193
100000.25235355861
99999.90818409433
100000.0336194739
99999.98760672376
100000.00453494597
99999.99826398949
100000.00058887951
99999.99973069203
100000.00006200963
99999.99995030707
100000.0000024075
99999.9999902159
99999.99999932891
99999.99999834894
99999.99999987922
99999.99999978795
100000.00000000106
99999.99999997832
99853.27744659262
100321.01124418055
113952.95731818477
174650.40695010708
100049.10456871975
99983.3855745721
100005.7962886578
99997.93968246182
100000.74142659521
99999.7308823204
100000.09838863385
99999.96385936406
100000.01332255559
99999.99502949204
100000.00179537208
99999.99927499024
100000.00021812205
99999.99987559303
100000.00001570521
99999.99997420034
99999.99999822243
99999.99999474184
99999.9999992375
99999.99999915181
99999.9999999009
99999.99999990004
99999.99999999796
99999.99999999067
99988.34248384708
99806.83986323596
105123.73077172572
128387.25068981049
183458.70446054026
100010.46066506077
99995.50494662959
100001.75499482454
99999.33398615499
100000.2504305613
99999.90619878341
100000.03513822367
99999.98683540935
100000.00490535806
99999.99811367036
100000.00065352341
99999.99970004275
100000.00006626893
99999.99993968286
99999.99999882611
99999.99998595366
99999.9999974246
99999.9999971255
99999.99999940184
99999.99999956587
99999.99999993363
99999.99999995364
99999.99999999802
99999.99999999607
100009.29699611045
99889.20868485139
101016.50137386117
114466.18215118548
143335.90655367795
185120.27061328513
100000.45393773407
99999.21894969868
100000.40851499788
99999.82171777487
100000.07299667281
99999.97104691857
100000.01131201845
99999.99560390325
100000.00165040285
99999.99931553515
100000.00020652468
99999.99987140577
100000.00000931356
99999.9999682849
99999.99999415739
99999.99999198533
99999.99999778578
99999.99999840921
99999.99999959556
99999.99999977888
99999.99999996
99999.99999997878
99999.99999999865
99999.99999999849
100006.00019845078
99968.2344241936
100102.06998545717
104729.95229146064
127389.47057698214
155868.51484071906
182932.30697839241
99999.12100902191
100000.04595029066
100000.0472915678
99999.96631495812
100000.01693218261
99999.99245968508
100000.00316981752
99999.99867067397
100000.00048449507
99999.99975337194
100000.00004442382
99999.9999388572
99999.99999113847
99999.99998170101
99999.99999403466
99999.99999526078
99999.99999839705
99999.9999991149
99999.99999974908
99999.99999988831
99999.9999999776
99999.9999999905
99999.99999999926
99999.99999999945
100002.05270878247
99996.0024452413
99967.02004646888
101306.06737199334
111885.32869229694
141454.04363197382
164553.2782590467
179429.2732283524
99999.48308650944
100000.10908698656
99999.98326964754
99999.99944983514
100000.0022297389
99999.99855928564
100000.00070028307
99999.99963644738
100000.00010299437
99999.99990247234
99999.9999921209
99999.99996597711
99999.99998763636
99999.9999886148
99999.99999526008
99999.99999714205
99999.99999893975
99999.9999995083
99999.99999985319
99999.99999994421
99999.9999999881
99999.9999999958
99999.99999999962
99999.99999999984
100000.38968719865
100001.39308143692
99977.67980528972
100266.87932780068
104406.46727604384
122404.20789201459
153953.21753263441
169562.01245462077
176066.9802544818
99999.82382057248
100000.05398731984
99999.98581306296
100000.00319764252
99999.99952128778
99999.99992838642
100000.00006696311
99999.99990075015
99999.99999281348
99999.99995090565
99999.99997926518
99999.99997810934
99999.99998900724
99999.99999260655
99999.99999662161
99999.9999982687
99999.99999933847
99999.99999972901
99999.99999991794
99999.99999997247
99999.99999999409
99999.99999999812
99999.99999999985
100000.0
99999.96927726251
100001.12491304612
99993.06656353554
100029.13180077457
101351.64335114326
110251.27495772603
134867.69658579916
163199.14913068345
171878.58155459774
173448.82726191852
99999.9652449396
100000.01693295
99999.99411532386
100000.00180551525
99999.99949871315
100000.00008784143
99999.99994792826
99999.99995886965
99999.99996798439
99999.9999674434
99999.99997929962
99999.99998469868
99999.99999152325
99999.99999513404
99999.99999773828
99999.99999895816
99999.99999960455
99999.9999998525
99999.99999995585
99999.9999999866
99999.99999999713
99999.99999999919
99999.99999999985
100000.00000000003
99999.93900353032
100000.41295624043
99998.96335169973
99993.59026404728
100350.07199179921
103915.32012373683
119105.15676631648
147093.49922664204
168911.0765677615
172570.587436156
171685.01043259274
100000.00192686333
100000.00298355214
99999.99838793428
100000.00063134822
99999.99976227785
100000.00003582002
99999.99994354467
99999.99996739214
99999.99996697906
99999.99997495316
99999.99998283274
99999.99998902874
99999.99999390426
99999.99999681576
99999.99999854932
99999.9999993817
99999.99999977145
99999.99999992091
99999.99999997689
99999.99999999348
99999.99999999862
99999.99999999968
100000.00000000003
100000.00000000006
99999.97156075232
100000.08376558985
100000.21771868243
99995.02609336626
100071.02726578801
101306.5534897622
108706.7978891302
130207.23373316381
157206.5350532046
171768.89635435605
172449.40068859493
170659.14732619404
100000.00514863062
99999.99964943866
99999.99979018941
100000.00013284614
99999.99990628287
99999.999989552
99999.99995383363
99999.99996859721
99999.99997149309
99999.99998010675
99999.99998678053
99999.99999218454
99999.99999580329
99999.99999794929
99999.99999909992
99999.99999963962
99999.99999987183
99999.99999995857
99999.9999999884
99999.99999999708
99999.99999999943
99999.99999999984
100000.00000000003
100000.00000000003
99999.99222265315
99999.99582601187
100000.21713687849
99998.36648855725
100008.17378839395
100382.40098331745
103445.9390680635
116162.438565878
141909.32267891185
164349.2908959928
172755.62874215769
172022.01706478206
170176.54975764055
100000.00254881084
99999.99945833988
100000.00006358344
99999.99998593613
99999.99995475312
99999.99996964997
99999.99996162839
99999.9999709538
99999.99997672373
99999.99998445963
99999.99999023715
99999.99999454289
99999.99999720308
99999.99999870654
99999.999999457
99999.99999979424
99999.99999992996
99999.99999997864
99999.99999999428
99999.99999999868
99999.99999999983
99999.99999999993
100000.0000000001
100000.00000000003
99999.99929639905
99999.98812364112
100000.08419557767
99999.71964837446
99998.61748032512
100096.37434553557
101213.77056704591
107416.94622816774
125975.47330359684
152409.56567842717
168666.2049300655
172731.16614544997
171559.67315724705
170040.02262381237
100000.00075568324
99999.9997437273
100000.00004549614
99999.99995897918
99999.99996471828
99999.99996477725
99999.99996710398
99999.9999747674
99999.99998156907
99999.99998821065
99999.99999300975
99999.99999628184
99999.99999818673
99999.99999920228
99999.99999968061
99999.99999988495
99999.99999996272
99999.99999998926
99999.99999999726
99999.99999999948
99999.99999999981
99999.99999999996
100000.0
100000.00000000003
100000.00057951054
99999.99430085665
100000.01814336846
100000.02998366501
99998.79613746735
100019.38709431695
100385.69572270376
103004.84590376508
113725.46677797595
136980.6259340706
160526.6053781839
170847.89656685805
172284.96313639975
171181.02071690373
170089.62050242088
100000.00009364227
99999.99991739537
99999.99999973993
99999.99995949856
99999.9999651972
99999.9999661164
99999.99997183109
99999.9999791439
99999.99998579174
99999.99999132405
99999.99999512854
99999.99999753007
99999.99999885341
99999.99999951935
99999.99999981653
99999.99999993714
99999.99999998054
99999.99999999472
99999.9999999988
99999.9999999999
99999.9999999999
99999.99999999996
100000.00000000003
100000.00000000003
100000.00040413426
99999.99842209724
99999.99966195728
100000.04337993517
99999.58552326907
100002.2851488449
100109.77765490771
101104.27485820439
106314.93369273691
122366.38003566148
147577.6597386087
165977.95863328272
171675.95236021208
171754.75143763534
170916.97525962733
170224.47367062615
99999.99994774867
99999.99997342388
99999.99997454602
99999.9999625371
99999.99996571694
99999.9999696886
99999.9999764132
99999.99998341569
99999.99998933685
99999.9999937963
99999.99999669052
99999.99999839942
99999.99999929211
99999.99999971688
99999.99999989694
99999.9999999664
99999.99999999006
99999.99999999747
99999.99999999949
99999.99999999988
100000.00000000003
100000.00000000003
100000.00000000003
100000.00000000003
100000.00014768238
99999.99984759706
99999.9977467692
100000.0180237611
99999.91998754125
99999.66625004119
100027.18290697364
100372.35624536718
102610.3422222381
111664.90443353179
132582.58770196387
156422.33633988915
169156.10158445884
171778.42744919175
171299.24989668286
170759.81904883828
170369.42676412727
99999.99994539586
99999.99997953311
99999.99996530607
99999.99996480247
99999.99996798135
99999.99997398445
99999.99998083168
99999.99998723253
99999.99999220877
99999.99999568202
99999.99999780615
99999.99999898743
99999.99999957278
99999.99999983684
99999.99999994342
99999.99999998226
99999.999999995
99999.99999999884
99999.99999999977
100000.00000000003
100000.00000000003
100000.00000000003
100000.00000000003
100000.00000000007
100000.00002539463
100000.00010080579
99999.99889513204
100000.00417472547
100000.00215221706
99999.68628774768
100005.41350019533
100115.05726126328
100991.85913705232
105384.13192484359
119243.85796099337
143037.65770610474
162886.52608347186
170724.55504316388
171568.74525228064
170972.10691706097
170681.7122361232
170497.87042981133
99999.99995895193
99999.99997384442
99999.99996353484
99999.99996715598
99999.99997155029
99999.99997839256
99999.99998489428
99999.99999045167
99999.99999445447
99999.99999707007
99999.99999857994
99999.99999937425
99999.9999997479
99999.9999999081
99999.99999996956
99999.99999999089
99999.99999999754
99999.99999999943
99999.99999999993
99999.99999999996
100000.00000000003
100000.00000000003
100000.00000000003
100000.00000000003
99999.99998588984
100000.000058335
99999.99970966297
100000.00005099385
100000.00900295189
99999.88780173202
100000.63721286951
100032.11701929447
100350.26173432799
102263.0761369414
109931.31351490003
128625.16251097718
152359.62314951594
167053.55652952017
171313.36146691
171281.09471154446
170769.28037139765
170656.21865446458
170592.77847794435
99999.99996463547
99999.99996905543
99999.99996486242
99999.99997019068
99999.99997573032
99999.99998258972
99999.999988441
99999.99999304926
99999.99999615169
99999.99999805941
99999.99999910174
99999.99999962168
99999.99999985442
99999.99999994926
99999.99999998395
99999.99999999545
99999.9999999989
99999.99999999977
99999.99999999997
100000.0
100000.00000000003
100000.00000000001
100000.00000000003
100000.00000000003
99999.9999755564
100000.00000167044
99999.99999098046
99999.99952087739
100000.00417770042
99999.97610408919
99999.90881263425
100007.83799715416
100115.0125675887
100884.12663184879
104598.3768127399
116559.83179954012
138758.2973766184
159666.87147758572
169419.57511615954
171391.0431480285
171026.2797988444
170664.53810550514
170659.490955914
170654.82278530498
99999.99996519543
99999.99996733075
99999.99996763826
99999.9999738677
99999.99997999678
99999.9999863727
99999.99999139717
99999.99999506817
99999.999997394
99999.99999874443
99999.99999944447
99999.99999977628
99999.9999999177
99999.99999997261
99999.99999999176
99999.99999999788
99999.99999999948
99999.99999999988
100000.00000000003
99999.99999999996
100000.00000000003
100000.00000000003
100000.00000000003
100000.00000000003
99999.9999720133
99999.9999744574
100000.00003275952
99999.99972210455
100000.00114208997
99999.99907379101
99999.91278344946
100001.5416046223
100034.85055553494
100324.10597656156
101961.54891903717
108471.62609634757
125099.1735206643
148338.02529734434
164751.75379396512
170575.10524243183
171253.7684849879
170842.68382187875
170625.93340581356
170674.84913551877
170687.25250575415
99999.99996496906
99999.99996806764
99999.99997122012
99999.99997786905
99999.99998401132
99999.99998962597
99999.99999376295
99999.99999658552
99999.99999827612
99999.99999920576
99999.99999966385
99999.99999987047
99999.9999999545
99999.99999998549
99999.99999999585
99999.99999999904
99999.99999999984
99999.99999999997
100000.00000000001
100000.00000000007
100000.00000000003
100000.00000000003
100000.00000000003
100000.00000000003
99999.99996984375
99999.99996563667
100000.00001339224
99999.99988829612
100000.00015193106
100000.00175033406
99999.96821029829
100000.17717508046
100009.57782387825
100111.64215159293
100784.59167808252
103936.27935860428
114255.07775296803
134776.6906763972
156321.2248713886
167914.80213835783
171017.83676791593
171064.54876037248
170730.82160955007
170625.51899614747
170691.2754424014
170701.5800382533
99999.99996580629
99999.99997040222
99999.9999752191
99999.99998185349
99999.99998757774
99999.9999923094
99999.99999558958
99999.99999769151
99999.99999888538
99999.99999950842
99999.99999980084
99999.99999992661
99999.9999999753
99999.99999999253
99999.99999999799
99999.99999999953
100000.0
100000.0000000001
100000.00000000001
100000.00000000003
100000.00000000003
100000.00000000003
100000.00000000003
100000.00000000003
99999.9999687848
99999.99996386711
99999.99999230531
99999.99995165165
99999.99997516186
100000.00085290374
99999.9929830579
99999.97173403167
100002.30632516395
100035.96867373426
100296.72728619033
101701.53640483005
107241.91802658254