# vtk DataFile Version 2.0
JuliaCFD
ASCII
DATASET UNSTRUCTURED_GRID

POINTS 7752 float
0.0 0.0 -0.005
0.02 0.0 -0.005
0.04 0.0 -0.005
0.06 0.0 -0.005
0.08 0.0 -0.005
0.1 0.0 -0.005
0.12 0.0 -0.005
0.14 0.0 -0.005
0.16 0.0 -0.005
0.18 0.0 -0.005
0.2 0.0 -0.005
0.22 0.0 -0.005
0.24 0.0 -0.005
0.26 0.0 -0.005
0.28 0.0 -0.005
0.3 0.0 -0.005
0.32 0.0 -0.005
0.34 0.0 -0.005
0.36 0.0 -0.005
0.38 0.0 -0.005
0.4 0.0 -0.005
0.42 0.0 -0.005
0.44 0.0 -0.005
0.46 0.0 -0.005
0.48 0.0 -0.005
0.5 0.0 -0.005
0.0 0.02 -0.005
0.02 0.02 -0.005
0.04 0.02 -0.005
0.06 0.02 -0.005
0.08 0.02 -0.005
0.1 0.02 -0.005
0.12 0.02 -0.005
0.14 0.02 -0.005
0.16 0.02 -0.005
0.18 0.02 -0.005
0.2 0.02 -0.005
0.22 0.02 -0.005
0.24 0.02 -0.005
0.26 0.02 -0.005
0.28 0.02 -0.005
0.3 0.02 -0.005
0.32 0.02 -0.005
0.34 0.02 -0.005
0.36 0.02 -0.005
0.38 0.02 -0.005
0.4 0.02 -0.005
0.42 0.02 -0.005
0.44 0.02 -0.005
0.46 0.02 -0.005
0.48 0.02 -0.005
0.5 0.02 -0.005
0.0 0.04 -0.005
0.02 0.04 -0.005
0.04 0.04 -0.005
0.06 0.04 -0.005
0.08 0.04 -0.005
0.1 0.04 -0.005
0.12 0.04 -0.005
0.14 0.04 -0.005
0.16 0.04 -0.005
0.18 0.04 -0.005
0.2 0.04 -0.005
0.22 0.04 -0.005
0.24 0.04 -0.005
0.26 0.04 -0.005
0.28 0.04 -0.005
0.3 0.04 -0.005
0.32 0.04 -0.005
0.34 0.04 -0.005
0.36 0.04 -0.005
0.38 0.04 -0.005
0.4 0.04 -0.005
0.42 0.04 -0.005
0.44 0.04 -0.005
0.46 0.04 -0.005
0.48 0.04 -0.005
0.5 0.04 -0.005
0.0 0.06 -0.005
0.02 0.06 -0.005
0.04 0.06 -0.005
0.06 0.06 -0.005
0.08 0.06 -0.005
0.1 0.06 -0.005
0.12 0.06 -0.005
0.14 0.06 -0.005
0.16 0.06 -0.005
0.18 0.06 -0.005
0.2 0.06 -0.005
0.22 0.06 -0.005
0.24 0.06 -0.005
0.26 0.06 -0.005
0.28 0.06 -0.005
0.3 0.06 -0.005
0.32 0.06 -0.005
0.34 0.06 -0.005
0.36 0.06 -0.005
0.38 0.06 -0.005
0.4 0.06 -0.005
0.42 0.06 -0.005
0.44 0.06 -0.005
0.46 0.06 -0.005
0.48 0.06 -0.005
0.5 0.06 -0.005
0.0 0.08 -0.005
0.02 0.08 -0.005
0.04 0.08 -0.005
0.06 0.08 -0.005
0.08 0.08 -0.005
0.1 0.08 -0.005
0.12 0.08 -0.005
0.14 0.08 -0.005
0.16 0.08 -0.005
0.18 0.08 -0.005
0.2 0.08 -0.005
0.22 0.08 -0.005
0.24 0.08 -0.005
0.26 0.08 -0.005
0.28 0.08 -0.005
0.3 0.08 -0.005
0.32 0.08 -0.005
0.34 0.08 -0.005
0.36 0.08 -0.005
0.38 0.08 -0.005
0.4 0.08 -0.005
0.42 0.08 -0.005
0.44 0.08 -0.005
0.46 0.08 -0.005
0.48 0.08 -0.005
0.5 0.08 -0.005
0.0 0.1 -0.005
0.02 0.1 -0.005
0.04 0.1 -0.005
0.06 0.1 -0.005
0.08 0.1 -0.005
0.1 0.1 -0.005
0.12 0.1 -0.005
0.14 0.1 -0.005
0.16 0.1 -0.005
0.18 0.1 -0.005
0.2 0.1 -0.005
0.22 0.1 -0.005
0.24 0.1 -0.005
0.26 0.1 -0.005
0.28 0.1 -0.005
0.3 0.1 -0.005
0.32 0.1 -0.005
0.34 0.1 -0.005
0.36 0.1 -0.005
0.38 0.1 -0.005
0.4 0.1 -0.005
0.42 0.1 -0.005
0.44 0.1 -0.005
0.46 0.1 -0.005
0.48 0.1 -0.005
0.5 0.1 -0.005
0.0 0.12 -0.005
0.02 0.12 -0.005
0.04 0.12 -0.005
0.06 0.12 -0.005
0.08 0.12 -0.005
0.1 0.12 -0.005
0.12 0.12 -0.005
0.14 0.12 -0.005
0.16 0.12 -0.005
0.18 0.12 -0.005
0.2 0.12 -0.005
0.22 0.12 -0.005
0.24 0.12 -0.005
0.26 0.12 -0.005
0.28 0.12 -0.005
0.3 0.12 -0.005
0.32 0.12 -0.005
0.34 0.12 -0.005
0.36 0.12 -0.005
0.38 0.12 -0.005
0.4 0.12 -0.005
0.42 0.12 -0.005
0.44 0.12 -0.005
0.46 0.12 -0.005
0.48 0.12 -0.005
0.5 0.12 -0.005
0.0 0.14 -0.005
0.02 0.14 -0.005
0.04 0.14 -0.005
0.06 0.14 -0.005
0.08 0.14 -0.005
0.1 0.14 -0.005
0.12 0.14 -0.005
0.14 0.14 -0.005
0.16 0.14 -0.005
0.18 0.14 -0.005
0.2 0.14 -0.005
0.22 0.14 -0.005
0.24 0.14 -0.005
0.26 0.14 -0.005
0.28 0.14 -0.005
0.3 0.14 -0.005
0.32 0.14 -0.005
0.34 0.14 -0.005
0.36 0.14 -0.005
0.38 0.14 -0.005
0.4 0.14 -0.005
0.42 0.14 -0.005
0.44 0.14 -0.005
0.46 0.14 -0.005
0.48 0.14 -0.005
0.5 0.14 -0.005
0.0 0.16 -0.005
0.02 0.16 -0.005
0.04 0.16 -0.005
0.06 0.16 -0.005
0.08 0.16 -0.005
0.1 0.16 -0.005
0.12 0.16 -0.005
0.14 0.16 -0.005
0.16 0.16 -0.005
0.18 0.16 -0.005
0.2 0.16 -0.005
0.22 0.16 -0.005
0.24 0.16 -0.005
0.26 0.16 -0.005
0.28 0.16 -0.005
0.3 0.16 -0.005
0.32 0.16 -0.005
0.34 0.16 -0.005
0.36 0.16 -0.005
0.38 0.16 -0.005
0.4 0.16 -0.005
0.42 0.16 -0.005
0.44 0.16 -0.005
0.46 0.16 -0.005
0.48 0.16 -0.005
0.5 0.16 -0.005
0.0 0.18 -0.005
0.02 0.18 -0.005
0.04 0.18 -0.005
0.06 0.18 -0.005
0.08 0.18 -0.005
0.1 0.18 -0.005
0.12 0.18 -0.005
0.14 0.18 -0.005
0.16 0.18 -0.005
0.18 0.18 -0.005
0.2 0.18 -0.005
0.22 0.18 -0.005
0.24 0.18 -0.005
0.26 0.18 -0.005
0.28 0.18 -0.005
0.3 0.18 -0.005
0.32 0.18 -0.005
0.34 0.18 -0.005
0.36 0.18 -0.005
0.38 0.18 -0.005
0.4 0.18 -0.005
0.42 0.18 -0.005
0.44 0.18 -0.005
0.46 0.18 -0.005
0.48 0.18 -0.005
0.5 0.18 -0.005
0.0 0.2 -0.005
0.02 0.2 -0.005
0.04 0.2 -0.005
0.06 0.2 -0.005
0.08 0.2 -0.005
0.1 0.2 -0.005
0.12 0.2 -0.005
0.14 0.2 -0.005
0.16 0.2 -0.005
0.18 0.2 -0.005
0.2 0.2 -0.005
0.22 0.2 -0.005
0.24 0.2 -0.005
0.26 0.2 -0.005
0.28 0.2 -0.005
0.3 0.2 -0.005
0.32 0.2 -0.005
0.34 0.2 -0.005
0.36 0.2 -0.005
0.38 0.2 -0.005
0.4 0.2 -0.005
0.42 0.2 -0.005
0.44 0.2 -0.005
0.46 0.2 -0.005
0.48 0.2 -0.005
0.5 0.2 -0.005
0.0 0.22 -0.005
0.02 0.22 -0.005
0.04 0.22 -0.005
0.06 0.22 -0.005
0.08 0.22 -0.005
0.1 0.22 -0.005
0.12 0.22 -0.005
0.14 0.22 -0.005
0.16 0.22 -0.005
0.18 0.22 -0.005
0.2 0.22 -0.005
0.22 0.22 -0.005
0.24 0.22 -0.005
0.26 0.22 -0.005
0.28 0.22 -0.005
0.3 0.22 -0.005
0.32 0.22 -0.005
0.34 0.22 -0.005
0.36 0.22 -0.005
0.38 0.22 -0.005
0.4 0.22 -0.005
0.42 0.22 -0.005
0.44 0.22 -0.005
0.46 0.22 -0.005
0.48 0.22 -0.005
0.5 0.22 -0.005
0.0 0.24 -0.005
0.02 0.24 -0.005
0.04 0.24 -0.005
0.06 0.24 -0.005
0.08 0.24 -0.005
0.1 0.24 -0.005
0.12 0.24 -0.005
0.14 0.24 -0.005
0.16 0.24 -0.005
0.18 0.24 -0.005
0.2 0.24 -0.005
0.22 0.24 -0.005
0.24 0.24 -0.005
0.26 0.24 -0.005
0.28 0.24 -0.005
0.3 0.24 -0.005
0.32 0.24 -0.005
0.34 0.24 -0.005
0.36 0.24 -0.005
0.38 0.24 -0.005
0.4 0.24 -0.005
0.42 0.24 -0.005
0.44 0.24 -0.005
0.46 0.24 -0.005
0.48 0.24 -0.005
0.5 0.24 -0.005
0.0 0.26 -0.005
0.02 0.26 -0.005
0.04 0.26 -0.005
0.06 0.26 -0.005
0.08 0.26 -0.005
0.1 0.26 -0.005
0.12 0.26 -0.005
0.14 0.26 -0.005
0.16 0.26 -0.005
0.18 0.26 -0.005
0.2 0.26 -0.005
0.22 0.26 -0.005
0.24 0.26 -0.005
0.26 0.26 -0.005
0.28 0.26 -0.005
0.3 0.26 -0.005
0.32 0.26 -0.005
0.34 0.26 -0.005
0.36 0.26 -0.005
0.38 0.26 -0.005
0.4 0.26 -0.005
0.42 0.26 -0.005
0.44 0.26 -0.005
0.46 0.26 -0.005
0.48 0.26 -0.005
0.5 0.26 -0.005
0.0 0.28 -0.005
0.02 0.28 -0.005
0.04 0.28 -0.005
0.06 0.28 -0.005
0.08 0.28 -0.005
0.1 0.28 -0.005
0.12 0.28 -0.005
0.14 0.28 -0.005
0.16 0.28 -0.005
0.18 0.28 -0.005
0.2 0.28 -0.005
0.22 0.28 -0.005
0.24 0.28 -0.005
0.26 0.28 -0.005
0.28 0.28 -0.005
0.3 0.28 -0.005
0.32 0.28 -0.005
0.34 0.28 -0.005
0.36 0.28 -0.005
0.38 0.28 -0.005
0.4 0.28 -0.005
0.42 0.28 -0.005
0.44 0.28 -0.005
0.46 0.28 -0.005
0.48 0.28 -0.005
0.5 0.28 -0.005
0.0 0.3 -0.005
0.02 0.3 -0.005
0.04 0.3 -0.005
0.06 0.3 -0.005
0.08 0.3 -0.005
0.1 0.3 -0.005
0.12 0.3 -0.005
0.14 0.3 -0.005
0.16 0.3 -0.005
0.18 0.3 -0.005
0.2 0.3 -0.005
0.22 0.3 -0.005
0.24 0.3 -0.005
0.26 0.3 -0.005
0.28 0.3 -0.005
0.3 0.3 -0.005
0.32 0.3 -0.005
0.34 0.3 -0.005
0.36 0.3 -0.005
0.38 0.3 -0.005
0.4 0.3 -0.005
0.42 0.3 -0.005
0.44 0.3 -0.005
0.46 0.3 -0.005
0.48 0.3 -0.005
0.5 0.3 -0.005
0.0 0.32 -0.005
0.02 0.32 -0.005
0.04 0.32 -0.005
0.06 0.32 -0.005
0.08 0.32 -0.005
0.1 0.32 -0.005
0.12 0.32 -0.005
0.14 0.32 -0.005
0.16 0.32 -0.005
0.18 0.32 -0.005
0.2 0.32 -0.005
0.22 0.32 -0.005
0.24 0.32 -0.005
0.26 0.32 -0.005
0.28 0.32 -0.005
0.3 0.32 -0.005
0.32 0.32 -0.005
0.34 0.32 -0.005
0.36 0.32 -0.005
0.38 0.32 -0.005
0.4 0.32 -0.005
0.42 0.32 -0.005
0.44 0.32 -0.005
0.46 0.32 -0.005
0.48 0.32 -0.005
0.5 0.32 -0.005
0.0 0.34 -0.005
0.02 0.34 -0.005
0.04 0.34 -0.005
0.06 0.34 -0.005
0.08 0.34 -0.005
0.1 0.34 -0.005
0.12 0.34 -0.005
0.14 0.34 -0.005
0.16 0.34 -0.005
0.18 0.34 -0.005
0.2 0.34 -0.005
0.22 0.34 -0.005
0.24 0.34 -0.005
0.26 0.34 -0.005
0.28 0.34 -0.005
0.3 0.34 -0.005
0.32 0.34 -0.005
0.34 0.34 -0.005
0.36 0.34 -0.005
0.38 0.34 -0.005
0.4 0.34 -0.005
0.42 0.34 -0.005
0.44 0.34 -0.005
0.46 0.34 -0.005
0.48 0.34 -0.005
0.5 0.34 -0.005
0.0 0.36 -0.005
0.02 0.36 -0.005
0.04 0.36 -0.005
0.06 0.36 -0.005
0.08 0.36 -0.005
0.1 0.36 -0.005
0.12 0.36 -0.005
0.14 0.36 -0.005
0.16 0.36 -0.005
0.18 0.36 -0.005
0.2 0.36 -0.005
0.22 0.36 -0.005
0.24 0.36 -0.005
0.26 0.36 -0.005
0.28 0.36 -0.005
0.3 0.36 -0.005
0.32 0.36 -0.005
0.34 0.36 -0.005
0.36 0.36 -0.005
0.38 0.36 -0.005
0.4 0.36 -0.005
0.42 0.36 -0.005
0.44 0.36 -0.005
0.46 0.36 -0.005
0.48 0.36 -0.005
0.5 0.36 -0.005
0.0 0.38 -0.005
0.02 0.38 -0.005
0.04 0.38 -0.005
0.06 0.38 -0.005
0.08 0.38 -0.005
0.1 0.38 -0.005
0.12 0.38 -0.005
0.14 0.38 -0.005
0.16 0.38 -0.005
0.18 0.38 -0.005
0.2 0.38 -0.005
0.22 0.38 -0.005
0.24 0.38 -0.005
0.26 0.38 -0.005
0.28 0.38 -0.005
0.3 0.38 -0.005
0.32 0.38 -0.005
0.34 0.38 -0.005
0.36 0.38 -0.005
0.38 0.38 -0.005
0.4 0.38 -0.005
0.42 0.38 -0.005
0.44 0.38 -0.005
0.46 0.38 -0.005
0.48 0.38 -0.005
0.5 0.38 -0.005
0.0 0.4 -0.005
0.02 0.4 -0.005
0.04 0.4 -0.005
0.06 0.4 -0.005
0.08 0.4 -0.005
0.1 0.4 -0.005
0.12 0.4 -0.005
0.14 0.4 -0.005
0.16 0.4 -0.005
0.18 0.4 -0.005
0.2 0.4 -0.005
0.22 0.4 -0.005
0.24 0.4 -0.005
0.26 0.4 -0.005
0.28 0.4 -0.005
0.3 0.4 -0.005
0.32 0.4 -0.005
0.34 0.4 -0.005
0.36 0.4 -0.005
0.38 0.4 -0.005
0.4 0.4 -0.005
0.42 0.4 -0.005
0.44 0.4 -0.005
0.46 0.4 -0.005
0.48 0.4 -0.005
0.5 0.4 -0.005
0.0 0.42 -0.005
0.02 0.42 -0.005
0.04 0.42 -0.005
0.06 0.42 -0.005
0.08 0.42 -0.005
0.1 0.42 -0.005
0.12 0.42 -0.005
0.14 0.42 -0.005
0.16 0.42 -0.005
0.18 0.42 -0.005
0.2 0.42 -0.005
0.22 0.42 -0.005
0.24 0.42 -0.005
0.26 0.42 -0.005
0.28 0.42 -0.005
0.3 0.42 -0.005
0.32 0.42 -0.005
0.34 0.42 -0.005
0.36 0.42 -0.005
0.38 0.42 -0.005
0.4 0.42 -0.005
0.42 0.42 -0.005
0.44 0.42 -0.005
0.46 0.42 -0.005
0.48 0.42 -0.005
0.5 0.42 -0.005
0.0 0.44 -0.005
0.02 0.44 -0.005
0.04 0.44 -0.005
0.06 0.44 -0.005
0.08 0.44 -0.005
0.1 0.44 -0.005
0.12 0.44 -0.005
0.14 0.44 -0.005
0.16 0.44 -0.005
0.18 0.44 -0.005
0.2 0.44 -0.005
0.22 0.44 -0.005
0.24 0.44 -0.005
0.26 0.44 -0.005
0.28 0.44 -0.005
0.3 0.44 -0.005
0.32 0.44 -0.005
0.34 0.44 -0.005
0.36 0.44 -0.005
0.38 0.44 -0.005
0.4 0.44 -0.005
0.42 0.44 -0.005
0.44 0.44 -0.005
0.46 0.44 -0.005
0.48 0.44 -0.005
0.5 0.44 -0.005
[...]
CELL_DATA 3750
SCALARS P float 1
LOOKUP_TABLE default
99999.99633274192
100000.0063593355
99999.99636858945
99999.98973421616
100000.00625592742
99999.99665134047
100000.01735534423
99999.98985742986
100000.00572154742
99999.99702177245
99999.97146121353
100000.01711285702
99999.99072528552
100000.00501646899
99999.99745618351
100000.04774309594
99999.97179836595
100000.01556739521
99999.99186284746
100000.00420021723
99999.99791088531
99999.92087795082
100000.04720836472
99999.97441986937
100000.01354346651
99999.99317922012
100000.00336302497
99999.99834911602
100000.13189475215
99999.92157868367
100000.04262507673
99999.97783869092
100000.01121776587
99999.99452674475
100000.00257770836
99999.99874335383
99999.78076992644
100000.13109922604
99999.92950556
100000.03666595278
99999.98174944898
100000.00886222647
99999.99578891121
100000.0018939289
99999.99907751102
100000.36505204564
99999.78114859007
100000.11723465988
99999.93976330794
100000.02989183839
99999.98567639833
100000.00668677052
99999.99688746224
100000.0013356956
99999.99934612795
99999.3926912306
100000.36658607538
99999.80544097141
100000.09938729348
99999.95134570074
100000.0231587069
99999.98926492057
100000.00482621197
99999.9977855419
100000.00090536755
99999.99955193854
100001.01073655415
99999.38521817805
100000.32369474496
99999.83648879082
100000.07939024562
99999.96272445745
100000.01708436504
99999.9922984913
100000.00333696461
99999.99848045656
100000.00059049504
99999.99970282784
99998.31843490695
100001.03407791506
99999.46145962356
100000.26936922692
99999.87095483071
100000.05999093073
99999.97284299815
100000.01202648049
99999.99469819594
100000.00221312883
99999.99899239934
100000.00037093775
99999.99980901935
100002.79815327679
99998.25613989348
100000.89736300187
99999.55689022668
100000.20972223778
99999.9039016333
100000.04300245972
99999.981131931
100000.00809419951
99999.99648917136
100000.00140928577
99999.99935316037
100000.00022459481
99999.99988094934
99995.3418157212
100002.95067401619
99998.50360653328
100000.72878588975
99999.660256763
100000.15363055227
99999.93224786808
100000.02932469467
99999.98746402738
100000.00521680746
99999.99775824386
100000.00086216393
99999.9995972803
100000.00013113423
99999.9999279477
100007.76642133821
99994.9905468161
100002.49824168917
99998.80311923753
100000.54920608945
99999.75564122267
100000.10629076422
99999.95462259786
100000.01907214896
99999.99201395662
100000.00322359116
99999.99861637583
100000.00050678944
99999.99975642402
100000.00007384385
99999.99995762481
99987.00928127533
100008.5336883744
99995.82571108239
100001.96268939681
99999.11564612675
100000.3870090726
99999.83440023934
100000.06970649089
99999.9710390583
100000.01185477685
99999.99510915721
100000.00191091669
99999.99917247627
100000.00028607606
99999.99985665499
100000.0000400949
99999.99997576392
100021.87052374288
99985.42075895476
100006.97924228055
99996.78968036475
100001.41799419631
99999.39106527026
100000.25629975802
99999.8938274688
100000.04346652771
99999.98233690069
100000.0070530891
99999.99711285207
100000.00108654505
99999.99951915433
100000.00015485895
99999.99991779425
100000.00002097564
99999.99998651097
99962.75869372753
100024.94589955777
99988.32910167606
100005.23270141242
99997.73968661363
100000.95124346444
99999.6070025957
100000.16021956982
99999.93537500658
100000.02583628481
99999.98967851505
100000.00401997786
99999.99835248663
100000.00059189208
99999.99972779297
100000.00008016953
99999.99995399374
100000.00001055801
99999.99999268966
100064.67348298705
99957.3401165678
100019.50129364361
99991.51303277681
100003.57645389088
99998.52811887358
100000.59641265812
99999.76114639656
100000.09488220062
99999.96254533141
100000.01466593651
99999.99420623279
100000.00219477895
99999.99908823367
100000.00030805597
99999.99984942078
100000.00003950161
99999.99997483974
100000.00000510078
99999.99999614041
99884.06085778361
100072.59653117068
99967.46465686365
100013.66759434908
99994.39559617026
100002.25107462562
99999.10695817573
100000.35123577094
99999.86276607151
100000.05337913505
99999.9792779552
100000.00795926274
99999.99686714317
100000.00114618546
99999.99950869713
100000.00015236894
99999.9999183394
100000.00001836878
99999.99998653667
100000.00000235612
99999.99999801413
100219.56271753529
99877.47699972794
100054.08229030881
99978.1954843323
100008.67018692488
99996.60857330209
100001.3156634974
99999.49254474608
100000.19505019758
99999.92523973297
100000.0285863285
99999.98903050281
100000.00413000783
99999.99836254858
100000.00057047418
99999.99974095677
100000.00007090886
99999.99995643437
100000.00000793612
99999.99999294263
100000.00000103402
99999.99999900376
99538.6270761231
100203.7288535667
99910.38392089041
100034.31510536732
99986.81040314953
100005.01100763144
99998.10181514794
100000.71772284467
99999.72887926451
100000.10242617439
99999.96129568903
100000.01458998135
99999.99443052281
100000.00204591235
99999.99916885911
100000.00026856372
99999.99986552457
100000.00003044204
99999.99997705409
100000.00000308397
99999.99999637215
100000.00000042647
99999.9999995127
101183.81670607884
99659.01203516542
100147.71172533988
99946.89498324844
100019.60153886014
99992.78361166872
100002.66584140177
99999.01249037165
100000.36683717903
99999.86343992609
100000.05095509211
99999.98092297386
100000.00709707486
99999.997279499
100000.00096343672
99999.99958750328
100000.0001177483
99999.9999307489
100000.00001153302
99999.99998802721
100000.00000099136
99999.99999816938
100000.00000016192
99999.99999976752
95614.72923981497
100604.33047187008
99754.87157622693
100080.15819444277
99971.78180940413
100010.0293050892
99996.38875707188
100001.31112861403
99999.52087107846
100000.17605606501
99999.93504994753
100000.02403320471
99999.99103331468
100000.00328447437
99999.99871540237
100000.00042711388
99999.99979780336
100000.0000464463
99999.99996432292
100000.00000337577
99999.99999379228
100000.00000018181
99999.99999909248
100000.00000005419
99999.9999998918
98638.74438440522
128625.3631209288
100408.95906202136
99882.92638821885
100038.65888645791
99986.75696527403
100004.65007869975
99998.34201026986
100000.59760798373
99999.78289987546
100000.07939980543
99999.9708113488
100000.01074045523
99999.99597241312
100000.00143865761
99999.99940870254
100000.00017439041
99999.99990072004
100000.0000149787
99999.99998145847
100000.00000026023
99999.99999679427
99999.9999999243
99999.99999955771
100000.00000001407
99999.99999995086
99354.45074132991
103341.69641109195
156262.57932422208
100157.64587126789
99951.41268818777
100016.09010537772
99994.45329387812
100001.95450054093
99999.30135151935
100000.25235355855
99999.90818409428
100000.03361947394
99999.98760672368
100000.00453494594
99999.99826398942
100000.00058887961
99999.99973069197
100000.0000620096
99999.99995030691
100000.00000240753
99999.9999902159
99999.99999932891
99999.99999834904
99999.99999987906
99999.99999978795
100000.00000000108
99999.99999997832
99853.27744659189
100321.01124418215
113952.95731818293
174650.40695011828
100049.10456872013
99983.38557457208
100005.79628865789
99997.93968246164
100000.74142659515
99999.73088232025
100000.0983886337
99999.96385936403
100000.01332255552
99999.99502949193
100000.00179537201
99999.99927499022
100000.0002181221
99999.99987559288
100000.00001570527
99999.99997420028
99999.99999822248
99999.99999474183
99999.9999992375
99999.99999915189
99999.99999990084
99999.99999990004
99999.99999999799
99999.99999999061
99988.34248384628
99806.83986323727
105123.73077172361
128387.2506898195
183458.7044605482
100010.46066506111
99995.50494662946
100001.7549948247
99999.33398615498
100000.25043056141
99999.90619878321
100000.03513822358
99999.98683540926
100000.00490535799
99999.99811367036
100000.00065352338
99999.99970004274
100000.000066269
99999.99993968297
99999.99999882608
99999.99998595363
99999.99999742456
99999.99999712543
99999.99999940183
99999.99999956586
99999.99999993348
99999.99999995364
99999.99999999811
99999.9999999962
100009.29699611016
99889.20868485254
101016.50137385915
114466.1821511922
143335.90655368599
185120.27061333187
100000.45393773439
99999.21894969884
100000.4085149979
99999.82171777483
100000.07299667271
99999.97104691839
100000.01131201841
99999.99560390311
100000.00165040269
99999.99931553515
100000.00020652468
99999.99987140596
100000.0000093136
99999.99996828503
99999.99999415746
99999.99999198531
99999.99999778588
99999.99999840923
99999.99999959557
99999.99999977897
99999.99999996001
99999.99999997883
99999.9999999986
99999.99999999849
100006.00019845032
99968.23442419451
100102.06998545557
104729.95229146526
127389.47057698654
155868.51484076917
182932.30697844442
99999.12100902226
100000.04595029067
100000.047291568
99999.96631495807
100000.0169321825
99999.992459685
100000.00316981759
99999.99867067384
100000.00048449496
99999.99975337187
100000.00004442384
99999.99993885728
99999.99999113854
99999.99998170104
99999.9999940345
99999.99999526064
99999.99999839702
99999.99999911492
99999.99999974904
99999.99999988826
99999.99999997762
99999.99999999053
99999.99999999913
99999.99999999943
100002.0527087821
99996.00244524224
99967.02004646743
101306.0673719971
111885.32869229672
141454.04363201908
164553.27825911346
179429.27322855286
99999.48308650972
100000.10908698651
99999.98326964761
99999.99944983507
100000.00222973888
99999.9985592856
100000.00070028302
99999.99963644726
100000.00010299424
99999.99990247222
99999.99999212097
99999.99996597708
99999.99998763639
99999.99998861486
99999.99999526002
99999.99999714212
99999.99999893963
99999.99999950838
99999.99999985317
99999.99999994398
99999.99999998808
99999.99999999585
99999.99999999965
99999.9999999999
100000.38968719832
100001.39308143793
99977.6798052883
100266.87932780373
104406.46727604081
122404.20789204656
153953.21753270226
169562.01245485264
176066.98025493266
99999.82382057277
100000.05398731978
99999.98581306307
100000.00319764248
99999.99952128778
99999.99992838636
100000.00006696302
99999.99990075015
99999.9999928134
99999.99995090568
99999.99997926512
99999.99997810929
99999.99998900726
99999.99999260656
99999.99999662153
99999.99999826874
99999.99999933851
99999.99999972904
99999.99999991787
99999.99999997226
99999.99999999392
99999.99999999821
99999.99999999983
100000.00000000001
99999.96927726206
100001.12491304713
99993.06656353407
100029.1318007774
101351.64335113994
110251.2749577455
134867.6965858497
163199.1491309237
171878.5815551569
173448.82726387653
99999.96524494007
100000.01693294986
99999.99411532399
100000.00180551512
99999.99949871325
100000.0000878415
99999.99994792821
99999.99995886967
99999.99996798439
99999.99996744329
99999.99997929962
99999.99998469856
99999.99999152323
99999.99999513399
99999.99999773838
99999.99999895817
99999.99999960455
99999.99999985246
99999.99999995578
99999.99999998661
99999.99999999703
99999.99999999921
99999.99999999993
99999.99999999997
99999.93900352975
100000.41295624153
99998.96335169826
99993.59026404993
100350.07199179592
103915.32012374882
119105.1567663423
147093.49922685046
168911.07656837397
172570.5874385118
171685.01044014015
100000.00192686365
100000.00298355198
99999.99838793445
100000.00063134806
99999.9997622778
100000.00003581993
99999.99994354455
99999.99996739202
99999.99996697897
99999.99997495316
99999.99998283257
99999.9999890288
99999.9999939041
99999.99999681559
99999.99999854944
99999.9999993817
99999.99999977146
99999.99999992092
99999.99999997695
99999.99999999351
99999.9999999986
99999.99999999955
100000.00000000007
100000.00000000006
99999.9715607518
100000.0837655909
100000.21771868087
99995.02609336881
100071.02726578452
101306.55348977077
108706.797889137
130207.23373331029
157206.53505376802
171768.89635695808
172449.40069773115
170659.14735709733
100000.00514863097
99999.99964943835
99999.9997901895
100000.00013284608
99999.9999062828
99999.99998955197
99999.99995383354
99999.99996859726
99999.9999714931
99999.99998010667
99999.99998678034
99999.9999921845
99999.99999580321
99999.99999794926
99999.99999909998
99999.99999963971
99999.99999987181
99999.99999995844
99999.99999998834
99999.99999999703
99999.99999999939
99999.99999999997
100000.00000000003
100000.00000000003
99999.99222265264
99999.99582601301
100000.21713687677
99998.36648855986
100008.17378839017
100382.40098332465
103445.93906806073
116162.43856596372
141909.3226793139
164349.29089855574
172755.62875241038
172022.01710153284
170176.5498723857
100000.00254881123
99999.99945833959
100000.00006358349
99999.99998593608
99999.99995475308
99999.99996964986
99999.99996162823
99999.99997095377
99999.99997672379
99999.99998445962
99999.99999023715
99999.99999454293
99999.99999720321
99999.99999870642
99999.99999945707
99999.99999979413
99999.99999993
99999.9999999786
99999.99999999425
99999.99999999865
99999.99999999977
100000.0
100000.00000000007
100000.00000000003
99999.99929639834
99999.98812364215
100000.08419557576
99999.71964837721
99998.61748032091
100096.37434554248
101213.77056703897
107416.94622821485
125975.4733038043
152409.56568051156
168666.2049407073
172731.16618650165
171559.67329228623
170040.02302388079
100000.00075568356
99999.999743727
100000.00004549624
99999.99995897914
99999.99996471821
99999.99996477707
99999.99996710397
99999.99997476731
99999.99998156901
99999.99998821058
99999.99999300964
99999.99999628187
99999.99999818677
99999.99999920228
99999.99999968061
99999.99999988497
99999.99999996266
99999.99999998919
99999.99999999728
99999.99999999949
99999.99999999984
99999.99999999997
100000.00000000001
100000.00000000003
100000.0005795099
99999.99430085778
100000.01814336656
100000.02998366788
99998.79613746273
100019.38709432402
100385.69572269476
103004.84590379342
113725.46677805496
136980.62593534208
160526.60538786603
170847.89661047264
172284.9632863837
171181.0211823738
170089.6217864005
100000.0000936428
99999.999917395
99999.99999974009
99999.99995949844
99999.99996519722
99999.99996611633
99999.99997183129
99999.99997914393
99999.99998579183
99999.999991324
99999.9999951285
99999.99999752996
99999.99999885348
99999.99999951928
99999.99999981647
99999.99999993714
99999.9999999805
99999.99999999462
99999.99999999866
99999.99999999975
99999.99999999996
99999.99999999996
100000.00000000003
100000.00000000003
100000.00040413359
99999.9984220985
99999.99966195518
100000.04337993826
99999.58552326399
100002.28514885226
100109.7776548967
101104.2748582255
106314.93369275618
122366.38003622486
147577.65974563357
165977.95867596092
171675.9525212614
171754.75195040833
170916.97674196787
170224.47751284932
99999.99994774912
99999.99997342363
99999.99997454621
99999.999962537
99999.99996571697
99999.99996968858
99999.9999764133
99999.99998341566
99999.99998933681
99999.9999937964
99999.9999966905
99999.9999983995
99999.99999929211
99999.9999997168
99999.99999989686
99999.99999996623
99999.99999998999
99999.99999999751
99999.99999999937
99999.99999999978
100000.00000000003
100000.00000000003
100000.00000000003
100000.00000000003
100000.00014768155
99999.99984759823
99999.99774676684
100000.01802376418
99999.91998753572
99999.66625004902
100027.18290696094
100372.35624538663
102610.34222222981
111664.90443374522
132582.58770563098
156422.33637593893
169156.10174819932
171778.42800070698
171299.25151903782
170759.82345566934
170369.43748395026
99999.99994539625
99999.99997953272
99999.99996530618
99999.99996480245
99999.99996798142
99999.99997398448
99999.99998083171
99999.9999872325
99999.99999220874
99999.999995682
99999.99999780618
99999.99999898755
99999.99999957278
99999.99999983686
99999.99999994345
99999.9999999824
99999.99999999502
99999.99999999876
99999.99999999971
99999.99999999988
100000.00000000003
100000.0
100000.00000000003
100000.00000000007
100000.00002539397
100000.00010080698
99999.99889512993
100000.00417472878
100000.00215221122
99999.68628775577
100005.41350018106
100115.05726128312
100991.85913702885
105384.1319249458
119243.85796224533
143037.65773018808
162886.5262353403
170724.55561371104
171568.74699490814
170972.1117125526
170681.72447115925
170497.8985141502
99999.9999589524
99999.99997384423
99999.99996353505
99999.99996715592
99999.99997155032
99999.99997839257
99999.99998489425
99999.99999045147
99999.99999445443
99999.99999706997
99999.99999857995
99999.99999937421
99999.99999974784
99999.99999990812
99999.99999996956
99999.99999999093
99999.99999999745
99999.99999999945
99999.99999999978
99999.99999999984
99999.99999999996
100000.00000000001
100000.00000000003
100000.00000000003
99999.99998588902
100000.00005833614
99999.9997096608
100000.00005099694
100000.00900294581
99999.88780174006
100000.63721285405
100032.11701931484
100350.26173429545
102263.07613701205
109931.31351515821
128625.16252252662
152359.62327011907
167053.55708632662
171313.36328420482
171281.0998486536
170769.293625589
170656.25056828433
170592.8477653483
99999.99996463604
99999.99996905513
99999.99996486261
99999.99997019068
99999.99997573023
99999.99998258975
99999.99998844112
99999.99999304907
99999.99999615183
99999.99999805949
99999.99999910171
99999.99999962182
99999.99999985429
99999.9999999492
99999.99999998402
99999.99999999555
99999.99999999879
99999.99999999983
99999.99999999997
99999.99999999996
100000.00000000003
100000.00000000001
100000.00000000003
100000.00000000003
99999.99997555547
100000.00000167158
99999.99999097825
99999.99952088049
100000.0041776942
99999.97610409721
99999.90881261797
100007.83799717456
100115.01256755038
100884.12663190899
104598.37681274443
116559.83180323696
138758.2974517358
159666.87197049512
169419.57693665073
171391.0485207098
171026.29396098753
170664.5725447439
170659.56938244656
170654.98454242697
99999.99996519598
99999.99996733046
99999.9999676385
99999.99997386766
99999.9999799968
99999.99998637273
99999.99999139717
99999.99999506814
99999.9999973939
99999.99999874442
99999.99999944447
99999.99999977634
99999.99999991764
99999.99999997269
99999.99999999169
99999.99999999776
99999.99999999946
99999.99999999996
100000.00000000001
99999.99999999996
100000.00000000003
100000.00000000003
100000.00000000003
100000.00000000003
99999.99997201252
99999.99997445871
100000.00003275713
99999.99972210768
100000.00114208362
99999.99907379894
99999.91278343243
100001.54160464268
100034.85055549293
100324.1059766181
101961.54891897656
108471.62609718782
125099.17355412846
148338.02566803427
164751.75550959283
170575.11069471674
171253.7833075204
170842.720533453
170626.01775592106
170675.03152385325
170687.61092625666
99999.99996496963
99999.99996806736
99999.99997122034
99999.99997786895
99999.99998401149
99999.99998962597
99999.99999376299
99999.99999658566
99999.99999827612
99999.99999920567
99999.99999966385
99999.99999987063
99999.99999995451
99999.99999998546
99999.99999999577
99999.99999999886
99999.99999999984
100000.00000000006
100000.00000000009
100000.00000000007
100000.00000000003
100000.00000000003
100000.00000000003
100000.00000000003
99999.999969843
99999.99996563792
100000.00001338996
99999.99988829909
100000.00015192469
100000.00175034213
99999.96821028097
100000.17717510056
100009.57782383377
100111.64215164793
100784.59167799224
103936.27935885797
114255.07776272847
134776.6908945617
156321.2263282022
167914.80745296218
171017.8519157251
171064.5871762539
170730.91134398585
170625.7145413937
170691.67804005943
170702.33659207576
99999.99996580678
99999.99997040199
99999.99997521928
99999.99998185331
99999.99998757795
99999.99999230939
99999.99999558971
99999.99999769138
99999.99999888531
99999.99999950836
99999.99999980077
99999.99999992659
99999.99999997523
99999.99999999249
99999.99999999793
99999.99999999955
99999.99999999997
100000.00000000004
100000.00000000001
100000.00000000003
100000.00000000003
100000.00000000003
100000.00000000003
100000.00000000003
99999.999968784
99999.99996386848
99999.99999230301
99999.99995165487
99999.99997515554
100000.00085291149
99999.99298304037
99999.97173405129
100002.30632511793
100035.96867378759