# vtk DataFile Version 2.0
JuliaCFD
ASCII
DATASET UNSTRUCTURED_GRID

POINTS 7752 float
0.0 0.0 -0.005
0.02 0.0 -0.005
0.04 0.0 -0.005
0.06 0.0 -0.005
0.08 0.0 -0.005
0.1 0.0 -0.005
0.12 0.0 -0.005
0.14 0.0 -0.005
0.16 0.0 -0.005
0.18 0.0 -0.005
0.2 0.0 -0.005
0.22 0.0 -0.005
0.24 0.0 -0.005
0.26 0.0 -0.005
0.28 0.0 -0.005
0.3 0.0 -0.005
0.32 0.0 -0.005
0.34 0.0 -0.005
0.36 0.0 -0.005
0.38 0.0 -0.005
0.4 0.0 -0.005
0.42 0.0 -0.005
0.44 0.0 -0.005
0.46 0.0 -0.005
0.48 0.0 -0.005
0.5 0.0 -0.005
0.0 0.02 -0.005
0.02 0.02 -0.005
0.04 0.02 -0.005
0.06 0.02 -0.005
0.08 0.02 -0.005
0.1 0.02 -0.005
0.12 0.02 -0.005
0.14 0.02 -0.005
0.16 0.02 -0.005
0.18 0.02 -0.005
0.2 0.02 -0.005
0.22 0.02 -0.005
0.24 0.02 -0.005
0.26 0.02 -0.005
0.28 0.02 -0.005
0.3 0.02 -0.005
0.32 0.02 -0.005
0.34 0.02 -0.005
0.36 0.02 -0.005
0.38 0.02 -0.005
0.4 0.02 -0.005
0.42 0.02 -0.005
0.44 0.02 -0.005
0.46 0.02 -0.005
0.48 0.02 -0.005
0.5 0.02 -0.005
0.0 0.04 -0.005
0.02 0.04 -0.005
0.04 0.04 -0.005
0.06 0.04 -0.005
0.08 0.04 -0.005
0.1 0.04 -0.005
0.12 0.04 -0.005
0.14 0.04 -0.005
0.16 0.04 -0.005
0.18 0.04 -0.005
0.2 0.04 -0.005
0.22 0.04 -0.005
0.24 0.04 -0.005
0.26 0.04 -0.005
0.28 0.04 -0.005
0.3 0.04 -0.005
0.32 0.04 -0.005
0.34 0.04 -0.005
0.36 0.04 -0.005
0.38 0.04 -0.005
0.4 0.04 -0.005
0.42 0.04 -0.005
0.44 0.04 -0.005
0.46 0.04 -0.005
0.48 0.04 -0.005
0.5 0.04 -0.005
0.0 0.06 -0.005
0.02 0.06 -0.005
0.04 0.06 -0.005
0.06 0.06 -0.005
0.08 0.06 -0.005
0.1 0.06 -0.005
0.12 0.06 -0.005
0.14 0.06 -0.005
0.16 0.06 -0.005
0.18 0.06 -0.005
0.2 0.06 -0.005
0.22 0.06 -0.005
0.24 0.06 -0.005
0.26 0.06 -0.005
0.28 0.06 -0.005
0.3 0.06 -0.005
0.32 0.06 -0.005
0.34 0.06 -0.005
0.36 0.06 -0.005
0.38 0.06 -0.005
0.4 0.06 -0.005
0.42 0.06 -0.005
0.44 0.06 -0.005
0.46 0.06 -0.005
0.48 0.06 -0.005
0.5 0.06 -0.005
0.0 0.08 -0.005
0.02 0.08 -0.005
0.04 0.08 -0.005
0.06 0.08 -0.005
0.08 0.08 -0.005
0.1 0.08 -0.005
0.12 0.08 -0.005
0.14 0.08 -0.005
0.16 0.08 -0.005
0.18 0.08 -0.005
0.2 0.08 -0.005
0.22 0.08 -0.005
0.24 0.08 -0.005
0.26 0.08 -0.005
0.28 0.08 -0.005
0.3 0.08 -0.005
0.32 0.08 -0.005
0.34 0.08 -0.005
0.36 0.08 -0.005
0.38 0.08 -0.005
0.4 0.08 -0.005
0.42 0.08 -0.005
0.44 0.08 -0.005
0.46 0.08 -0.005
0.48 0.08 -0.005
0.5 0.08 -0.005
0.0 0.1 -0.005
0.02 0.1 -0.005
0.04 0.1 -0.005
0.06 0.1 -0.005
0.08 0.1 -0.005
0.1 0.1 -0.005
0.12 0.1 -0.005
0.14 0.1 -0.005
0.16 0.1 -0.005
0.18 0.1 -0.005
0.2 0.1 -0.005
0.22 0.1 -0.005
0.24 0.1 -0.005
0.26 0.1 -0.005
0.28 0.1 -0.005
0.3 0.1 -0.005
0.32 0.1 -0.005
0.34 0.1 -0.005
0.36 0.1 -0.005
0.38 0.1 -0.005
0.4 0.1 -0.005
0.42 0.1 -0.005
0.44 0.1 -0.005
0.46 0.1 -0.005
0.48 0.1 -0.005
0.5 0.1 -0.005
0.0 0.12 -0.005
0.02 0.12 -0.005
0.04 0.12 -0.005
0.06 0.12 -0.005
0.08 0.12 -0.005
0.1 0.12 -0.005
0.12 0.12 -0.005
0.14 0.12 -0.005
0.16 0.12 -0.005
0.18 0.12 -0.005
0.2 0.12 -0.005
0.22 0.12 -0.005
0.24 0.12 -0.005
0.26 0.12 -0.005
0.28 0.12 -0.005
0.3 0.12 -0.005
0.32 0.12 -0.005
0.34 0.12 -0.005
0.36 0.12 -0.005
0.38 0.12 -0.005
0.4 0.12 -0.005
0.42 0.12 -0.005
0.44 0.12 -0.005
0.46 0.12 -0.005
0.48 0.12 -0.005
0.5 0.12 -0.005
0.0 0.14 -0.005
0.02 0.14 -0.005
0.04 0.14 -0.005
0.06 0.14 -0.005
0.08 0.14 -0.005
0.1 0.14 -0.005
0.12 0.14 -0.005
0.14 0.14 -0.005
0.16 0.14 -0.005
0.18 0.14 -0.005
0.2 0.14 -0.005
0.22 0.14 -0.005
0.24 0.14 -0.005
0.26 0.14 -0.005
0.28 0.14 -0.005
0.3 0.14 -0.005
0.32 0.14 -0.005
0.34 0.14 -0.005
0.36 0.14 -0.005
0.38 0.14 -0.005
0.4 0.14 -0.005
0.42 0.14 -0.005
0.44 0.14 -0.005
0.46 0.14 -0.005
0.48 0.14 -0.005
0.5 0.14 -0.005
0.0 0.16 -0.005
0.02 0.16 -0.005
0.04 0.16 -0.005
0.06 0.16 -0.005
0.08 0.16 -0.005
0.1 0.16 -0.005
0.12 0.16 -0.005
0.14 0.16 -0.005
0.16 0.16 -0.005
0.18 0.16 -0.005
0.2 0.16 -0.005
0.22 0.16 -0.005
0.24 0.16 -0.005
0.26 0.16 -0.005
0.28 0.16 -0.005
0.3 0.16 -0.005
0.32 0.16 -0.005
0.34 0.16 -0.005
0.36 0.16 -0.005
0.38 0.16 -0.005
0.4 0.16 -0.005
0.42 0.16 -0.005
0.44 0.16 -0.005
0.46 0.16 -0.005
0.48 0.16 -0.005
0.5 0.16 -0.005
0.0 0.18 -0.005
0.02 0.18 -0.005
0.04 0.18 -0.005
0.06 0.18 -0.005
0.08 0.18 -0.005
0.1 0.18 -0.005
0.12 0.18 -0.005
0.14 0.18 -0.005
0.16 0.18 -0.005
0.18 0.18 -0.005
0.2 0.18 -0.005
0.22 0.18 -0.005
0.24 0.18 -0.005
0.26 0.18 -0.005
0.28 0.18 -0.005
0.3 0.18 -0.005
0.32 0.18 -0.005
0.34 0.18 -0.005
0.36 0.18 -0.005
0.38 0.18 -0.005
0.4 0.18 -0.005
0.42 0.18 -0.005
0.44 0.18 -0.005
0.46 0.18 -0.005
0.48 0.18 -0.005
0.5 0.18 -0.005
0.0 0.2 -0.005
0.02 0.2 -0.005
0.04 0.2 -0.005
0.06 0.2 -0.005
0.08 0.2 -0.005
0.1 0.2 -0.005
0.12 0.2 -0.005
0.14 0.2 -0.005
0.16 0.2 -0.005
0.18 0.2 -0.005
0.2 0.2 -0.005
0.22 0.2 -0.005
0.24 0.2 -0.005
0.26 0.2 -0.005
0.28 0.2 -0.005
0.3 0.2 -0.005
0.32 0.2 -0.005
0.34 0.2 -0.005
0.36 0.2 -0.005
0.38 0.2 -0.005
0.4 0.2 -0.005
0.42 0.2 -0.005
0.44 0.2 -0.005
0.46 0.2 -0.005
0.48 0.2 -0.005
0.5 0.2 -0.005
0.0 0.22 -0.005
0.02 0.22 -0.005
0.04 0.22 -0.005
0.06 0.22 -0.005
0.08 0.22 -0.005
0.1 0.22 -0.005
0.12 0.22 -0.005
0.14 0.22 -0.005
0.16 0.22 -0.005
0.18 0.22 -0.005
0.2 0.22 -0.005
0.22 0.22 -0.005
0.24 0.22 -0.005
0.26 0.22 -0.005
0.28 0.22 -0.005
0.3 0.22 -0.005
0.32 0.22 -0.005
0.34 0.22 -0.005
0.36 0.22 -0.005
0.38 0.22 -0.005
0.4 0.22 -0.005
0.42 0.22 -0.005
0.44 0.22 -0.005
0.46 0.22 -0.005
0.48 0.22 -0.005
0.5 0.22 -0.005
0.0 0.24 -0.005
0.02 0.24 -0.005
0.04 0.24 -0.005
0.06 0.24 -0.005
0.08 0.24 -0.005
0.1 0.24 -0.005
0.12 0.24 -0.005
0.14 0.24 -0.005
0.16 0.24 -0.005
0.18 0.24 -0.005
0.2 0.24 -0.005
0.22 0.24 -0.005
0.24 0.24 -0.005
0.26 0.24 -0.005
0.28 0.24 -0.005
0.3 0.24 -0.005
0.32 0.24 -0.005
0.34 0.24 -0.005
0.36 0.24 -0.005
0.38 0.24 -0.005
0.4 0.24 -0.005
0.42 0.24 -0.005
0.44 0.24 -0.005
0.46 0.24 -0.005
0.48 0.24 -0.005
0.5 0.24 -0.005
0.0 0.26 -0.005
0.02 0.26 -0.005
0.04 0.26 -0.005
0.06 0.26 -0.005
0.08 0.26 -0.005
0.1 0.26 -0.005
0.12 0.26 -0.005
0.14 0.26 -0.005
0.16 0.26 -0.005
0.18 0.26 -0.005
0.2 0.26 -0.005
0.22 0.26 -0.005
0.24 0.26 -0.005
0.26 0.26 -0.005
0.28 0.26 -0.005
0.3 0.26 -0.005
0.32 0.26 -0.005
0.34 0.26 -0.005
0.36 0.26 -0.005
0.38 0.26 -0.005
0.4 0.26 -0.005
0.42 0.26 -0.005
0.44 0.26 -0.005
0.46 0.26 -0.005
0.48 0.26 -0.005
0.5 0.26 -0.005
0.0 0.28 -0.005
0.02 0.28 -0.005
0.04 0.28 -0.005
0.06 0.28 -0.005
0.08 0.28 -0.005
0.1 0.28 -0.005
0.12 0.28 -0.005
0.14 0.28 -0.005
0.16 0.28 -0.005
0.18 0.28 -0.005
0.2 0.28 -0.005
0.22 0.28 -0.005
0.24 0.28 -0.005
0.26 0.28 -0.005
0.28 0.28 -0.005
0.3 0.28 -0.005
0.32 0.28 -0.005
0.34 0.28 -0.005
0.36 0.28 -0.005
0.38 0.28 -0.005
0.4 0.28 -0.005
0.42 0.28 -0.005
0.44 0.28 -0.005
0.46 0.28 -0.005
0.48 0.28 -0.005
0.5 0.28 -0.005
0.0 0.3 -0.005
0.02 0.3 -0.005
0.04 0.3 -0.005
0.06 0.3 -0.005
0.08 0.3 -0.005
0.1 0.3 -0.005
0.12 0.3 -0.005
0.14 0.3 -0.005
0.16 0.3 -0.005
0.18 0.3 -0.005
0.2 0.3 -0.005
0.22 0.3 -0.005
0.24 0.3 -0.005
0.26 0.3 -0.005
0.28 0.3 -0.005
0.3 0.3 -0.005
0.32 0.3 -0.005
0.34 0.3 -0.005
0.36 0.3 -0.005
0.38 0.3 -0.005
0.4 0.3 -0.005
0.42 0.3 -0.005
0.44 0.3 -0.005
0.46 0.3 -0.005
0.48 0.3 -0.005
0.5 0.3 -0.005
0.0 0.32 -0.005
0.02 0.32 -0.005
0.04 0.32 -0.005
0.06 0.32 -0.005
0.08 0.32 -0.005
0.1 0.32 -0.005
0.12 0.32 -0.005
0.14 0.32 -0.005
0.16 0.32 -0.005
0.18 0.32 -0.005
0.2 0.32 -0.005
0.22 0.32 -0.005
0.24 0.32 -0.005
0.26 0.32 -0.005
0.28 0.32 -0.005
0.3 0.32 -0.005
0.32 0.32 -0.005
0.34 0.32 -0.005
0.36 0.32 -0.005
0.38 0.32 -0.005
0.4 0.32 -0.005
0.42 0.32 -0.005
0.44 0.32 -0.005
0.46 0.32 -0.005
0.48 0.32 -0.005
0.5 0.32 -0.005
0.0 0.34 -0.005
0.02 0.34 -0.005
0.04 0.34 -0.005
0.06 0.34 -0.005
0.08 0.34 -0.005
0.1 0.34 -0.005
0.12 0.34 -0.005
0.14 0.34 -0.005
0.16 0.34 -0.005
0.18 0.34 -0.005
0.2 0.34 -0.005
0.22 0.34 -0.005
0.24 0.34 -0.005
0.26 0.34 -0.005
0.28 0.34 -0.005
0.3 0.34 -0.005
0.32 0.34 -0.005
0.34 0.34 -0.005
0.36 0.34 -0.005
0.38 0.34 -0.005
0.4 0.34 -0.005
0.42 0.34 -0.005
0.44 0.34 -0.005
0.46 0.34 -0.005
0.48 0.34 -0.005
0.5 0.34 -0.005
0.0 0.36 -0.005
0.02 0.36 -0.005
0.04 0.36 -0.005
0.06 0.36 -0.005
0.08 0.36 -0.005
0.1 0.36 -0.005
0.12 0.36 -0.005
0.14 0.36 -0.005
0.16 0.36 -0.005
0.18 0.36 -0.005
0.2 0.36 -0.005
0.22 0.36 -0.005
0.24 0.36 -0.005
0.26 0.36 -0.005
0.28 0.36 -0.005
0.3 0.36 -0.005
0.32 0.36 -0.005
0.34 0.36 -0.005
0.36 0.36 -0.005
0.38 0.36 -0.005
0.4 0.36 -0.005
0.42 0.36 -0.005
0.44 0.36 -0.005
0.46 0.36 -0.005
0.48 0.36 -0.005
0.5 0.36 -0.005
0.0 0.38 -0.005
0.02 0.38 -0.005
0.04 0.38 -0.005
0.06 0.38 -0.005
0.08 0.38 -0.005
0.1 0.38 -0.005
0.12 0.38 -0.005
0.14 0.38 -0.005
0.16 0.38 -0.005
0.18 0.38 -0.005
0.2 0.38 -0.005
0.22 0.38 -0.005
0.24 0.38 -0.005
0.26 0.38 -0.005
0.28 0.38 -0.005
0.3 0.38 -0.005
0.32 0.38 -0.005
0.34 0.38 -0.005
0.36 0.38 -0.005
0.38 0.38 -0.005
0.4 0.38 -0.005
0.42 0.38 -0.005
0.44 0.38 -0.005
0.46 0.38 -0.005
0.48 0.38 -0.005
0.5 0.38 -0.005
0.0 0.4 -0.005
0.02 0.4 -0.005
0.04 0.4 -0.005
0.06 0.4 -0.005
0.08 0.4 -0.005
0.1 0.4 -0.005
0.12 0.4 -0.005
0.14 0.4 -0.005
0.16 0.4 -0.005
0.18 0.4 -0.005
0.2 0.4 -0.005
0.22 0.4 -0.005
0.24 0.4 -0.005
0.26 0.4 -0.005
0.28 0.4 -0.005
0.3 0.4 -0.005
0.32 0.4 -0.005
0.34 0.4 -0.005
0.36 0.4 -0.005
0.38 0.4 -0.005
0.4 0.4 -0.005
0.42 0.4 -0.005
0.44 0.4 -0.005
0.46 0.4 -0.005
0.48 0.4 -0.005
0.5 0.4 -0.005
0.0 0.42 -0.005
0.02 0.42 -0.005
0.04 0.42 -0.005
0.06 0.42 -0.005
0.08 0.42 -0.005
0.1 0.42 -0.005
0.12 0.42 -0.005
0.14 0.42 -0.005
0.16 0.42 -0.005
0.18 0.42 -0.005
0.2 0.42 -0.005
0.22 0.42 -0.005
0.24 0.42 -0.005
0.26 0.42 -0.005
0.28 0.42 -0.005
0.3 0.42 -0.005
0.32 0.42 -0.005
0.34 0.42 -0.005
0.36 0.42 -0.005
0.38 0.42 -0.005
0.4 0.42 -0.005
0.42 0.42 -0.005
0.44 0.42 -0.005
0.46 0.42 -0.005
0.48 0.42 -0.005
0.5 0.42 -0.005
0.0 0.44 -0.005
0.02 0.44 -0.005
0.04 0.44 -0.005
0.06 0.44 -0.005
0.08 0.44 -0.005
0.1 0.44 -0.005
0.12 0.44 -0.005
0.14 0.44 -0.005
0.16 0.44 -0.005
0.18 0.44 -0.005
0.2 0.44 -0.005
0.22 0.44 -0.005
0.24 0.44 -0.005
0.26 0.44 -0.005
0.28 0.44 -0.005
0.3 0.44 -0.005
0.32 0.44 -0.005
0.34 0.44 -0.005
0.36 0.44 -0.005
0.38 0.44 -0.005
0.4 0.44 -0.005
0.42 0.44 -0.005
0.44 0.44 -0.005
0.46 0.44 -0.005
0.48 0.44 -0.005
0.5 0.44 -0.005
[...]
CELL_DATA 3750
SCALARS P float 1
LOOKUP_TABLE default
99999.9963327419
100000.0063593356
99999.99636858935
99999.98973421623
100000.00625592748
99999.99665134047
100000.0173553441
99999.98985742986
100000.00572154752
99999.99702177245
99999.97146121346
100000.01711285708
99999.99072528548
100000.00501646916
99999.99745618363
100000.04774309596
99999.971798366
100000.01556739537
99999.99186284753
100000.00420021712
99999.99791088531
99999.92087795076
100000.04720836467
99999.9744198692
100000.01354346646
99999.99317922018
100000.00336302503
99999.99834911602
100000.13189475228
99999.92157868361
100000.04262507685
99999.9778386907
100000.01121776592
99999.99452674469
100000.00257770841
99999.99874335388
99999.78076992628
100000.13109922624
99999.92950555985
100000.03666595284
99999.98174944894
100000.00886222655
99999.99578891117
100000.0018939289
99999.999077511
100000.3650520459
99999.78114858989
100000.11723466012
99999.93976330779
100000.02989183845
99999.98567639822
100000.00668677058
99999.99688746237
100000.00133569558
99999.99934612798
99999.3926912303
100000.36658607553
99999.80544097119
100000.09938729364
99999.95134570073
100000.02315870699
99999.98926492059
100000.00482621197
99999.997785542
100000.0009053676
99999.99955193856
100001.0107365548
99999.38521817776
100000.32369474506
99999.83648879064
100000.07939024575
99999.96272445738
100000.01708436514
99999.99229849137
100000.00333696466
99999.99848045665
100000.00059049504
99999.99970282789
99998.31843490603
100001.03407791567
99999.46145962332
100000.26936922729
99999.8709548306
100000.05999093085
99999.97284299813
100000.01202648063
99999.99469819586
100000.00221312893
99999.99899239931
100000.00037093775
99999.9998090194
100002.79815327782
99998.25613989272
100000.89736300247
99999.55689022626
100000.20972223816
99999.90390163314
100000.04300245982
99999.98113193095
100000.00809419953
99999.9964891713
100000.00140928576
99999.99935316031
100000.0002245948
99999.9998809494
99995.34181571925
100002.95067401713
99998.50360653231
100000.72878589046
99999.66025676254
100000.15363055257
99999.93224786787
100000.02932469491
99999.98746402719
100000.0052168075
99999.99775824384
100000.00086216387
99999.99959728039
100000.0001311343
99999.99992794782
100007.76642133882
99994.99054681418
100002.49824169026
99998.80311923665
100000.5492060901
99999.75564122215
100000.10629076457
99999.95462259754
100000.01907214912
99999.99201395645
100000.00322359131
99999.99861637573
100000.00050678937
99999.99975642406
100000.00007384382
99999.99995762475
99987.00928126743
100008.53368837496
99995.82571108025
100001.96268939826
99999.11564612579
100000.38700907331
99999.83440023885
100000.0697064912
99999.97103905825
100000.01185477701
99999.99510915713
100000.00191091688
99999.99917247613
100000.00028607606
99999.99985665506
100000.00004009505
99999.99997576409
100021.87052373524
99985.42075894734
100006.97924228165
99996.78968036232
100001.41799419775
99999.39106526929
100000.25629975875
99999.89382746833
100000.04346652806
99999.98233690059
100000.00705308921
99999.99711285203
100000.00108654526
99999.99951915431
100000.00015485904
99999.99991779424
100000.00002097565
99999.99998651094
99962.75869369344
100024.94589954999
99988.32910166816
100005.23270141416
99997.73968661088
100000.95124346613
99999.60700259455
100000.16021957061
99999.93537500604
100000.02583628517
99999.98967851483
100000.00401997796
99999.99835248655
100000.00059189218
99999.99972779286
100000.00008016959
99999.99995399379
100000.00001055788
99999.9999926896
100064.6734829378
99957.3401165352
100019.50129363779
99991.51303276875
100003.57645389321
99998.52811887067
100000.59641266002
99999.76114639513
100000.09488220121
99999.96254533096
100000.0146659369
99999.99420623263
100000.00219477904
99999.99908823354
100000.00030805603
99999.99984942086
100000.00003950157
99999.99997483971
100000.00000510087
99999.99999614035
99884.06085766088
100072.59653112153
99967.46465683103
100013.6675943459
99994.39559616182
100002.25107462876
99999.10695817291
100000.3512357728
99999.86276607036
100000.05337913572
99999.97927795486
100000.007959263
99999.99686714313
100000.0011461855
99999.99950869694
100000.00015236894
99999.99991833942
100000.00001836878
99999.99998653667
100000.0000023561
99999.99999801417
100219.562717355
99877.47699961017
100054.08229026636
99978.19548430023
100008.67018692466
99996.60857329362
100001.31566350111
99999.49254474319
100000.19505019928
99999.92523973185
100000.02858632916
99999.98903050242
100000.00413000799
99999.99836254834
100000.00057047424
99999.99974095677
100000.00007090888
99999.99995643432
100000.00000793613
99999.99999294274
100000.00000103388
99999.9999990038
99538.62707577422
100203.72885338518
99910.38392077475
100034.31510533368
99986.81040311824
100005.01100763414
99998.10181513964
100000.71772284886
99999.72887926183
100000.10242617615
99999.96129568807
100000.01458998192
99999.99443052258
100000.00204591265
99999.99916885915
100000.0002685637
99999.9998655245
100000.00003044218
99999.99997705402
100000.00000308393
99999.99999637202
100000.00000042641
99999.9999995127
101183.81670559819
99659.01203483088
100147.71172517717
99946.89498313612
100019.60153883719
99992.78361163927
100002.66584140704
99999.01249036402
100000.36683718307
99999.86343992368
100000.05095509352
99999.98092297291
100000.00709707533
99999.99727949874
100000.00096343696
99999.9995875031
100000.00011774838
99999.999930749
100000.0000115331
99999.99998802715
100000.00000099125
99999.9999981692
100000.00000016186
99999.99999976752
95614.7292390279
100604.330471376
99754.8715758986
100080.15819430671
99971.7818092972
100010.02930507719
99996.38875704528
100001.3111286211
99999.52087107181
100000.17605606902
99999.9350499453
100000.02403320593
99999.9910333139
100000.00328447475
99999.99871540214
100000.00042711406
99999.99979780329
100000.00004644641
99999.99996432292
100000.0000033758
99999.99999379221
100000.00000018183
99999.99999909246
100000.00000005418
99999.99999989185
98638.7443836621
128625.36311896428
100408.95906156949
99882.92638789787
100038.6588863535
99986.75696517537
100004.65007869808
99998.34201024714
100000.59760799228
99999.78289986994
100000.07939980918
99999.97081134694
100000.01074045646
99999.99597241236
100000.00143865791
99999.99940870241
100000.00017439059
99999.99990071988
100000.00001497871
99999.9999814586
100000.00000026033
99999.99999679426
99999.99999992423
99999.99999955771
100000.00000001404
99999.99999995084
99354.45074058571
103341.69640977868
156262.5793209322
100157.64587088431
99951.41268787975
100016.09010530614
99994.45329379162
100001.9545005482
99999.30135150142
100000.25235356792
99999.90818409015
100000.03361947728
99999.98760672208
100000.00453494694
99999.99826398896
100000.00058887985
99999.9997306918
100000.00006200971
99999.9999503071
100000.00000240767
99999.99999021593
99999.99999932905
99999.99999834904
99999.99999987919
99999.99999978802
100000.00000000106
99999.99999997819
99853.27744583353
100321.01124316984
113952.95731571915
174650.4069452705
100049.10456841614
99983.38557428616
100005.79628861762
99997.93968239048
100000.74142660947
99999.73088230759
100000.09838864347
99999.96385936083
100000.01332255857
99999.99502949075
100000.00179537293
99999.99927498974
100000.00021812231
99999.9998755929
100000.00001570523
99999.9999742004
99999.99999822253
99999.99999474193
99999.99999923754
99999.99999915174
99999.99999990076
99999.99999989997
99999.99999999808
99999.9999999907
99988.3424830956
99806.83986243256
105123.73076980127
128387.250685458
183458.7044537022
100010.46066483832
99995.50494637669
100001.75499481244
99999.33398610154
100000.25043058133
99999.90619877566
100000.0351382334
99999.98683540722
100000.00490536069
99999.99811366932
100000.0006535242
99999.99970004243
100000.00006626919
99999.99993968286
99999.99999882618
99999.99998595378
99999.99999742467
99999.9999971255
99999.9999994018
99999.99999956587
99999.99999993364
99999.99999995365
99999.99999999806
99999.99999999617
100009.29699539523
99889.20868422202
101016.50137225266
114466.1821478232
143335.90654670034
185120.2705886653
100000.45393758698
99999.21894948916
100000.40851500978
99999.82171774017
100000.07299669708
99999.97104691561
100000.01131202809
99999.99560390195
100000.0016504052
99999.99931553438
100000.0002065254
99999.99987140538
100000.00000931369
99999.99996828481
99999.99999415754
99999.99999198537
99999.99999778582
99999.99999840923
99999.99999959549
99999.99999977896
99999.99999996
99999.99999997878
99999.99999999865
99999.9999999984
100006.00019780266
99968.23442372834
100102.0699839395
104729.95228930489
127389.47057129124
155868.51481614407
182932.3068522415
99999.12100894137
100000.04595013177
100000.04729160028
99999.96631494166
100000.01693221033
99999.99245968611
100000.00316982712
99999.9986706733
100000.00048449732
99999.99975337116
100000.00004442452
99999.99993885694
99999.99999113868
99999.99998170085
99999.9999940346
99999.99999526078
99999.99999839708
99999.99999911482
99999.99999974904
99999.99999988824
99999.99999997758
99999.99999999057
99999.99999999926
99999.99999999939
100002.05270823026
99996.00244492231
99967.02004499751
101306.06737068704
111885.32868791388
141454.0436146123
164553.27811803232
179429.2725793129
99999.48308648671
100000.10908688157
99999.98326969772
99999.99944983535
100000.00222976919
99999.99855928976
100000.00070029237
99999.9996364472
100000.00010299649
99999.99990247171
99999.99999212146
99999.9999659768
99999.99998763656
99999.99998861474
99999.99999526022
99999.9999971421
99999.99999893978
99999.99999950825
99999.99999985327
99999.9999999441
99999.99999998802
99999.99999999574
99999.99999999968
99999.9999999999
100000.38968676334
100001.3930812397
99977.67980391101
100266.87932703222
104406.4672724249
122404.20788419896
153953.21741178172
169562.01168051286
176066.97737995832
99999.8238206009
100000.05398726754
99999.98581312857
100000.00319765689
99999.99952132007
99999.99992839263
100000.00006697196
99999.99990075016
99999.99999281538
99999.99995090527
99999.99997926562
99999.99997810909
99999.99998900745
99999.9999926065
99999.99999662176
99999.99999826867
99999.99999933853
99999.9999997291
99999.99999991794
99999.9999999724
99999.99999999403
99999.99999999818
99999.99999999975
99999.99999999996
99999.9692769542
100001.12491294974
99993.06656232078
100029.13180034503
101351.64334798686
110251.27495433006
134867.69652227178
163199.14835673553
171878.57807009175
173448.81597769345
99999.96524501522
100000.01693294635
99999.99411540267
100000.0018055407
99999.99949874663
100000.00008784908
99999.99994793689
99999.99995887009
99999.99996798608
99999.99996744296
99999.99997929993
99999.99998469831
99999.99999152338
99999.99999513394
99999.9999977385
99999.99999895814
99999.99999960457
99999.99999985256
99999.9999999559
99999.9999999866
99999.99999999712
99999.99999999927
99999.9999999998
99999.99999999997
99999.93900334829
100000.41295623327
99998.9633507073
99993.59026382882
100350.07198892583
103915.32012205306
119105.15674672721
147093.4986687709
168911.0728219997
172570.57388893465
171684.9710923751
100000.00192698286
100000.00298359041
99999.99838802424
100000.00063138171
99999.99976231167
100000.00003582836
99999.9999435526
99999.99996739242
99999.99996698054
99999.99997495287
99999.99998283308
99999.99998902864
99999.99999390429
99999.99999681575
99999.9999985495
99999.99999938175
99999.99999977152
99999.99999992106
99999.9999999769
99999.99999999357
99999.99999999865
99999.9999999997
100000.0000000001
100000.00000000006
99999.97156068776
100000.0837656696
100000.21771794347
99995.02609327788
100071.02726322012
101306.5534892644
108706.79788213261
130207.23347973671
157206.53172983573
171768.88148292917
172449.35419136166
170659.02407888699
100000.00514879132
99999.99964951107
99999.99979028782
100000.000132885
99999.9999063164
99999.99998956059
99999.99995384095
99999.99996859767
99999.9999714944
99999.9999801065
99999.99998678081
99999.99999218443
99999.99999580339
99999.99999794933
99999.99999910004
99999.99999963971
99999.99999987187
99999.9999999585
99999.99999998834
99999.999999997
99999.99999999937
99999.99999999994
100000.00000000001
100000.00000000003
99999.9922226925
99999.99582618114
100000.21713639578
99998.36648856373
100008.17378624044
100382.40098343731
103445.93906151062
116162.43851099066
141909.3204755839
164349.27625164145
172755.5776809579
172021.87359781066
170176.1992667756
100000.0025490085
99999.9994584388
100000.00006368746
99999.99998597783
99999.9999547855
99999.99996965822
99999.99996163492
99999.99997095414
99999.9999767249
99999.99998445941
99999.99999023757
99999.99999454289
99999.99999720344
99999.99999870651
99999.99999945714
99999.99999979434
99999.99999993003
99999.99999997852
99999.99999999434
99999.99999999865
99999.99999999975
100000.0
100000.0000000001
100000.00000000003
99999.99929652624
99999.98812390186
100000.08419533375
99999.71964847938
99998.61747865893
100096.37434580481
101213.77056108454
107416.94622857361
125975.47235785013
152409.55363822263
168666.1522238412
172731.00968619203
171559.27038790932
170039.11006569272
100000.00075591236
99999.99974384543
100000.0000456026
99999.99995902198
99999.99996474874
99999.99996478502
99999.99996710972
99999.99997476766
99999.99998157001
99999.99998821039
99999.99999301
99999.99999628187
99999.99999818688
99999.99999920231
99999.99999968063
99999.9999998851
99999.99999996272
99999.99999998916
99999.99999999732
99999.99999999946
99999.99999999985
99999.99999999996
100000.00000000003
100000.00000000003
100000.00057970939
99999.99430120659
100000.01814333677
100000.02998389302
99998.79613629245
100019.38709455286
100385.69571794198
103004.84590651958
113725.46655573232
136980.61854829412
160526.55641412994
170847.73225142417
172284.52768182906
171179.98265246762
170087.42815014045
100000.0000938958
99999.99991752586
99999.99999984604
99999.99995954064
99999.99996522538
99999.99996612359
99999.99997183624
99999.99997914421
99999.9999857925
99999.99999132383
99999.99999512873
99999.99999753006
99999.99999885359
99999.99999951932
99999.9999998165
99999.99999993712
99999.99999998069
99999.99999999459
99999.9999999988
99999.99999999978
99999.9999999999
100000.00000000001
100000.00000000003
100000.00000000003
100000.00040438937
99999.99842252905
99999.9996621077
100000.04338031102
99999.58552254138
100002.28514905712
100109.7776512844
101104.27485942146
106314.93367127527
122366.3770215812
147577.622080535
165977.79633965416
171675.49287628528
171753.6378895495
170914.5009520839
170219.57988664877
99999.99994801827
99999.99997356105
99999.999974649
99999.99996257739
99999.9999657424
99999.99996969505
99999.99997641762
99999.99998341595
99999.99998933729
99999.99999379618
99999.99999669078
99999.99999839945
99999.999999292
99999.99999971688
99999.99999989693
99999.99999996641
99999.99999999009
99999.99999999751
99999.99999999948
99999.99999999991
100000.00000000007
100000.00000000003
100000.00000000003
100000.00000000003
100000.00014797944
99999.99984809797
99999.99774707272
100000.01802429918
99999.9199872017
99999.666250323
100027.18290433878
100372.35624632331
102610.34221701224
111664.9037303747
132582.56587520876
156422.19344806898
169155.63518550817
171777.2533909743
171296.61257598214
170754.33043877195
170359.21366811165
99999.99994567306
99999.99997967182
99999.9999654035
99999.99996484019
99999.9999680039
99999.99997398998
99999.99998083529
99999.99998723276
99999.99999220924
99999.99999568194
99999.99999780636
99999.99999898742
99999.99999957277
99999.99999983684
99999.99999994341
99999.99999998244
99999.99999999513
99999.99999999884
99999.99999999977
100000.00000000006
100000.0
100000.00000000003
100000.00000000003
100000.00000000007
100000.00002572036
100000.00010135943
99999.99889556224
100000.0041754259
100000.00215220782
99999.68628819597
100005.41349838302
100115.05726196604
100991.85912916822
105384.13187250102
119243.84926951198
143037.55376401547
162886.08336594971
170723.3507264007
171565.97204442247
170966.2862885484
170670.3174681544
170477.8315112057
99999.99995922881
99999.99997398055
99999.99996362515
99999.99996719015
99999.99997156978
99999.99997839736
99999.99998489718
99999.9999904517
99999.99999445493
99999.99999706991
99999.9999985801
99999.99999937418
99999.99999974786
99999.99999990805
99999.99999996956
99999.99999999104
99999.99999999764
99999.9999999995
99999.99999999987
100000.00000000001
100000.00000000003
100000.00000000003
100000.00000000003
100000.00000000003
99999.99998623198
100000.00005892338
99999.99971019497
100000.00005184194
100000.00900322404
99999.88780241754
100000.63721172769
100032.11701978916
100350.2617280564
102263.07615497292
109931.31134745736
128625.10514162277
152359.25034861595
167052.3697610154
171310.50674665664
171274.99188740333
170757.2458089697
170633.9669410659
170555.63002659095
99999.99996490481
99999.99996918537
99999.99996494425
99999.99997022105
99999.9999757469
99999.99998259374
99999.99998844332
99999.99999304926
99999.99999615223
99999.99999805946
99999.9999991019
99999.99999962174
99999.99999985438
99999.99999994924
99999.99999998412
99999.99999999545
99999.9999999989
99999.99999999975
99999.99999999999
99999.99999999997
100000.00000000003
100000.00000000003
100000.00000000003
100000.00000000003
99999.99997590351
100000.00000227544
99999.99999159084
99999.99952184819
100000.00417821477
99999.97610504569
99999.90881203432
100007.8379976689
100115.01256347795
100884.12663729729
104598.37653999962
116559.80943022858
138758.03893041867
159665.78165872404
169416.71378008783
171384.75804047857
171013.6939967227
170641.11836834913
170618.4272894169
170589.46756132602
99999.99996545126
99999.99996745186
99999.99996771089
99999.99997389416
99999.9999800107
99999.99998637594
99999.99999139894
99999.99999506827
99999.99999739428
99999.99999874449
99999.9999994445
99999.99999977625
99999.99999991771
99999.99999997263
99999.99999999179
99999.99999999783
99999.9999999995
99999.99999999993
99999.99999999996
99999.99999999996
100000.00000000001
100000.00000000003
100000.00000000003
100000.00000000003
99999.99997235546
99999.99997506243
100000.00003342537
99999.99972316695
100000.00114281331
99999.99907501599
99999.9127833003
100001.54160538675
100034.85055277811
100324.10597675122
101961.54892843882
108471.62029254825
125099.03638425296
148337.14360858305
164749.00080292372
170568.7601150049
171240.8144472664
170818.2435918898
170582.8495036802
170602.9305939437
170577.6992839115
99999.9999652071
99999.9999681782
99999.9999712835
99999.99997789154
99999.99998402277
99999.99998962849
99999.99999376452
99999.9999965857
99999.99999827647
99999.99999920571
99999.99999966379
99999.99999987049
99999.99999995444
99999.99999998549
99999.99999999585
99999.999999999
99999.9999999998
100000.00000000001
99999.99999999996
100000.00000000007
100000.00000000003
100000.00000000003
100000.00000000003
100000.00000000003
99999.99997017237
99999.9999662271
100000.00001409104
99999.99988941751
100000.00015283217
100000.00175179735
99999.96821054518
100000.17717623337
100009.57782194122
100111.64215179828
100784.5916831577
103936.27848261384
114255.02486889879
134776.1048925628
156318.769910453
167908.55582855336
171004.71646067416
171039.41258533456
170685.9432252217
170550.28784891492
170571.26807401088
170525.9677750331
99999.99996602317
99999.99997050095
99999.99997527317
99999.99998187221
99999.99998758698
99999.99999231134
99999.99999559087
99999.99999769154
99999.99999888554
99999.9999995084
99999.99999980078
99999.99999992656
99999.99999997542
99999.9999999926
99999.99999999796
99999.99999999956
99999.99999999994
100000.00000000004
100000.00000000001
100000.00000000003
100000.00000000003
100000.00000000003
100000.00000000003
100000.00000000003
99999.99996909301
99999.99996443065
99999.99999301562
99999.99995280086
99999.99997620712
100000.00085455856
99999.9929836702
99999.97173561412
100002.30632382771
100035.9686746308
100296.72728062466
101701.53639832303
107241.90363989276