# vtk DataFile Version 2.0
JuliaCFD
ASCII
DATASET UNSTRUCTURED_GRID

POINTS 7752 float
0.0 0.0 -0.005
0.02 0.0 -0.005
0.04 0.0 -0.005
0.06 0.0 -0.005
0.08 0.0 -0.005
0.1 0.0 -0.005
0.12 0.0 -0.005
0.14 0.0 -0.005
0.16 0.0 -0.005
0.18 0.0 -0.005
0.2 0.0 -0.005
0.22 0.0 -0.005
0.24 0.0 -0.005
0.26 0.0 -0.005
0.28 0.0 -0.005
0.3 0.0 -0.005
0.32 0.0 -0.005
0.34 0.0 -0.005
0.36 0.0 -0.005
0.38 0.0 -0.005
0.4 0.0 -0.005
0.42 0.0 -0.005
0.44 0.0 -0.005
0.46 0.0 -0.005
0.48 0.0 -0.005
0.5 0.0 -0.005
0.0 0.02 -0.005
0.02 0.02 -0.005
0.04 0.02 -0.005
0.06 0.02 -0.005
0.08 0.02 -0.005
0.1 0.02 -0.005
0.12 0.02 -0.005
0.14 0.02 -0.005
0.16 0.02 -0.005
0.18 0.02 -0.005
0.2 0.02 -0.005
0.22 0.02 -0.005
0.24 0.02 -0.005
0.26 0.02 -0.005
0.28 0.02 -0.005
0.3 0.02 -0.005
0.32 0.02 -0.005
0.34 0.02 -0.005
0.36 0.02 -0.005
0.38 0.02 -0.005
0.4 0.02 -0.005
0.42 0.02 -0.005
0.44 0.02 -0.005
0.46 0.02 -0.005
0.48 0.02 -0.005
0.5 0.02 -0.005
0.0 0.04 -0.005
0.02 0.04 -0.005
0.04 0.04 -0.005
0.06 0.04 -0.005
0.08 0.04 -0.005
0.1 0.04 -0.005
0.12 0.04 -0.005
0.14 0.04 -0.005
0.16 0.04 -0.005
0.18 0.04 -0.005
0.2 0.04 -0.005
0.22 0.04 -0.005
0.24 0.04 -0.005
0.26 0.04 -0.005
0.28 0.04 -0.005
0.3 0.04 -0.005
0.32 0.04 -0.005
0.34 0.04 -0.005
0.36 0.04 -0.005
0.38 0.04 -0.005
0.4 0.04 -0.005
0.42 0.04 -0.005
0.44 0.04 -0.005
0.46 0.04 -0.005
0.48 0.04 -0.005
0.5 0.04 -0.005
0.0 0.06 -0.005
0.02 0.06 -0.005
0.04 0.06 -0.005
0.06 0.06 -0.005
0.08 0.06 -0.005
0.1 0.06 -0.005
0.12 0.06 -0.005
0.14 0.06 -0.005
0.16 0.06 -0.005
0.18 0.06 -0.005
0.2 0.06 -0.005
0.22 0.06 -0.005
0.24 0.06 -0.005
0.26 0.06 -0.005
0.28 0.06 -0.005
0.3 0.06 -0.005
0.32 0.06 -0.005
0.34 0.06 -0.005
0.36 0.06 -0.005
0.38 0.06 -0.005
0.4 0.06 -0.005
0.42 0.06 -0.005
0.44 0.06 -0.005
0.46 0.06 -0.005
0.48 0.06 -0.005
0.5 0.06 -0.005
0.0 0.08 -0.005
0.02 0.08 -0.005
0.04 0.08 -0.005
0.06 0.08 -0.005
0.08 0.08 -0.005
0.1 0.08 -0.005
0.12 0.08 -0.005
0.14 0.08 -0.005
0.16 0.08 -0.005
0.18 0.08 -0.005
0.2 0.08 -0.005
0.22 0.08 -0.005
0.24 0.08 -0.005
0.26 0.08 -0.005
0.28 0.08 -0.005
0.3 0.08 -0.005
0.32 0.08 -0.005
0.34 0.08 -0.005
0.36 0.08 -0.005
0.38 0.08 -0.005
0.4 0.08 -0.005
0.42 0.08 -0.005
0.44 0.08 -0.005
0.46 0.08 -0.005
0.48 0.08 -0.005
0.5 0.08 -0.005
0.0 0.1 -0.005
0.02 0.1 -0.005
0.04 0.1 -0.005
0.06 0.1 -0.005
0.08 0.1 -0.005
0.1 0.1 -0.005
0.12 0.1 -0.005
0.14 0.1 -0.005
0.16 0.1 -0.005
0.18 0.1 -0.005
0.2 0.1 -0.005
0.22 0.1 -0.005
0.24 0.1 -0.005
0.26 0.1 -0.005
0.28 0.1 -0.005
0.3 0.1 -0.005
0.32 0.1 -0.005
0.34 0.1 -0.005
0.36 0.1 -0.005
0.38 0.1 -0.005
0.4 0.1 -0.005
0.42 0.1 -0.005
0.44 0.1 -0.005
0.46 0.1 -0.005
0.48 0.1 -0.005
0.5 0.1 -0.005
0.0 0.12 -0.005
0.02 0.12 -0.005
0.04 0.12 -0.005
0.06 0.12 -0.005
0.08 0.12 -0.005
0.1 0.12 -0.005
0.12 0.12 -0.005
0.14 0.12 -0.005
0.16 0.12 -0.005
0.18 0.12 -0.005
0.2 0.12 -0.005
0.22 0.12 -0.005
0.24 0.12 -0.005
0.26 0.12 -0.005
0.28 0.12 -0.005
0.3 0.12 -0.005
0.32 0.12 -0.005
0.34 0.12 -0.005
0.36 0.12 -0.005
0.38 0.12 -0.005
0.4 0.12 -0.005
0.42 0.12 -0.005
0.44 0.12 -0.005
0.46 0.12 -0.005
0.48 0.12 -0.005
0.5 0.12 -0.005
0.0 0.14 -0.005
0.02 0.14 -0.005
0.04 0.14 -0.005
0.06 0.14 -0.005
0.08 0.14 -0.005
0.1 0.14 -0.005
0.12 0.14 -0.005
0.14 0.14 -0.005
0.16 0.14 -0.005
0.18 0.14 -0.005
0.2 0.14 -0.005
0.22 0.14 -0.005
0.24 0.14 -0.005
0.26 0.14 -0.005
0.28 0.14 -0.005
0.3 0.14 -0.005
0.32 0.14 -0.005
0.34 0.14 -0.005
0.36 0.14 -0.005
0.38 0.14 -0.005
0.4 0.14 -0.005
0.42 0.14 -0.005
0.44 0.14 -0.005
0.46 0.14 -0.005
0.48 0.14 -0.005
0.5 0.14 -0.005
0.0 0.16 -0.005
0.02 0.16 -0.005
0.04 0.16 -0.005
0.06 0.16 -0.005
0.08 0.16 -0.005
0.1 0.16 -0.005
0.12 0.16 -0.005
0.14 0.16 -0.005
0.16 0.16 -0.005
0.18 0.16 -0.005
0.2 0.16 -0.005
0.22 0.16 -0.005
0.24 0.16 -0.005
0.26 0.16 -0.005
0.28 0.16 -0.005
0.3 0.16 -0.005
0.32 0.16 -0.005
0.34 0.16 -0.005
0.36 0.16 -0.005
0.38 0.16 -0.005
0.4 0.16 -0.005
0.42 0.16 -0.005
0.44 0.16 -0.005
0.46 0.16 -0.005
0.48 0.16 -0.005
0.5 0.16 -0.005
0.0 0.18 -0.005
0.02 0.18 -0.005
0.04 0.18 -0.005
0.06 0.18 -0.005
0.08 0.18 -0.005
0.1 0.18 -0.005
0.12 0.18 -0.005
0.14 0.18 -0.005
0.16 0.18 -0.005
0.18 0.18 -0.005
0.2 0.18 -0.005
0.22 0.18 -0.005
0.24 0.18 -0.005
0.26 0.18 -0.005
0.28 0.18 -0.005
0.3 0.18 -0.005
0.32 0.18 -0.005
0.34 0.18 -0.005
0.36 0.18 -0.005
0.38 0.18 -0.005
0.4 0.18 -0.005
0.42 0.18 -0.005
0.44 0.18 -0.005
0.46 0.18 -0.005
0.48 0.18 -0.005
0.5 0.18 -0.005
0.0 0.2 -0.005
0.02 0.2 -0.005
0.04 0.2 -0.005
0.06 0.2 -0.005
0.08 0.2 -0.005
0.1 0.2 -0.005
0.12 0.2 -0.005
0.14 0.2 -0.005
0.16 0.2 -0.005
0.18 0.2 -0.005
0.2 0.2 -0.005
0.22 0.2 -0.005
0.24 0.2 -0.005
0.26 0.2 -0.005
0.28 0.2 -0.005
0.3 0.2 -0.005
0.32 0.2 -0.005
0.34 0.2 -0.005
0.36 0.2 -0.005
0.38 0.2 -0.005
0.4 0.2 -0.005
0.42 0.2 -0.005
0.44 0.2 -0.005
0.46 0.2 -0.005
0.48 0.2 -0.005
0.5 0.2 -0.005
0.0 0.22 -0.005
0.02 0.22 -0.005
0.04 0.22 -0.005
0.06 0.22 -0.005
0.08 0.22 -0.005
0.1 0.22 -0.005
0.12 0.22 -0.005
0.14 0.22 -0.005
0.16 0.22 -0.005
0.18 0.22 -0.005
0.2 0.22 -0.005
0.22 0.22 -0.005
0.24 0.22 -0.005
0.26 0.22 -0.005
0.28 0.22 -0.005
0.3 0.22 -0.005
0.32 0.22 -0.005
0.34 0.22 -0.005
0.36 0.22 -0.005
0.38 0.22 -0.005
0.4 0.22 -0.005
0.42 0.22 -0.005
0.44 0.22 -0.005
0.46 0.22 -0.005
0.48 0.22 -0.005
0.5 0.22 -0.005
0.0 0.24 -0.005
0.02 0.24 -0.005
0.04 0.24 -0.005
0.06 0.24 -0.005
0.08 0.24 -0.005
0.1 0.24 -0.005
0.12 0.24 -0.005
0.14 0.24 -0.005
0.16 0.24 -0.005
0.18 0.24 -0.005
0.2 0.24 -0.005
0.22 0.24 -0.005
0.24 0.24 -0.005
0.26 0.24 -0.005
0.28 0.24 -0.005
0.3 0.24 -0.005
0.32 0.24 -0.005
0.34 0.24 -0.005
0.36 0.24 -0.005
0.38 0.24 -0.005
0.4 0.24 -0.005
0.42 0.24 -0.005
0.44 0.24 -0.005
0.46 0.24 -0.005
0.48 0.24 -0.005
0.5 0.24 -0.005
0.0 0.26 -0.005
0.02 0.26 -0.005
0.04 0.26 -0.005
0.06 0.26 -0.005
0.08 0.26 -0.005
0.1 0.26 -0.005
0.12 0.26 -0.005
0.14 0.26 -0.005
0.16 0.26 -0.005
0.18 0.26 -0.005
0.2 0.26 -0.005
0.22 0.26 -0.005
0.24 0.26 -0.005
0.26 0.26 -0.005
0.28 0.26 -0.005
0.3 0.26 -0.005
0.32 0.26 -0.005
0.34 0.26 -0.005
0.36 0.26 -0.005
0.38 0.26 -0.005
0.4 0.26 -0.005
0.42 0.26 -0.005
0.44 0.26 -0.005
0.46 0.26 -0.005
0.48 0.26 -0.005
0.5 0.26 -0.005
0.0 0.28 -0.005
0.02 0.28 -0.005
0.04 0.28 -0.005
0.06 0.28 -0.005
0.08 0.28 -0.005
0.1 0.28 -0.005
0.12 0.28 -0.005
0.14 0.28 -0.005
0.16 0.28 -0.005
0.18 0.28 -0.005
0.2 0.28 -0.005
0.22 0.28 -0.005
0.24 0.28 -0.005
0.26 0.28 -0.005
0.28 0.28 -0.005
0.3 0.28 -0.005
0.32 0.28 -0.005
0.34 0.28 -0.005
0.36 0.28 -0.005
0.38 0.28 -0.005
0.4 0.28 -0.005
0.42 0.28 -0.005
0.44 0.28 -0.005
0.46 0.28 -0.005
0.48 0.28 -0.005
0.5 0.28 -0.005
0.0 0.3 -0.005
0.02 0.3 -0.005
0.04 0.3 -0.005
0.06 0.3 -0.005
0.08 0.3 -0.005
0.1 0.3 -0.005
0.12 0.3 -0.005
0.14 0.3 -0.005
0.16 0.3 -0.005
0.18 0.3 -0.005
0.2 0.3 -0.005
0.22 0.3 -0.005
0.24 0.3 -0.005
0.26 0.3 -0.005
0.28 0.3 -0.005
0.3 0.3 -0.005
0.32 0.3 -0.005
0.34 0.3 -0.005
0.36 0.3 -0.005
0.38 0.3 -0.005
0.4 0.3 -0.005
0.42 0.3 -0.005
0.44 0.3 -0.005
0.46 0.3 -0.005
0.48 0.3 -0.005
0.5 0.3 -0.005
0.0 0.32 -0.005
0.02 0.32 -0.005
0.04 0.32 -0.005
0.06 0.32 -0.005
0.08 0.32 -0.005
0.1 0.32 -0.005
0.12 0.32 -0.005
0.14 0.32 -0.005
0.16 0.32 -0.005
0.18 0.32 -0.005
0.2 0.32 -0.005
0.22 0.32 -0.005
0.24 0.32 -0.005
0.26 0.32 -0.005
0.28 0.32 -0.005
0.3 0.32 -0.005
0.32 0.32 -0.005
0.34 0.32 -0.005
0.36 0.32 -0.005
0.38 0.32 -0.005
0.4 0.32 -0.005
0.42 0.32 -0.005
0.44 0.32 -0.005
0.46 0.32 -0.005
0.48 0.32 -0.005
0.5 0.32 -0.005
0.0 0.34 -0.005
0.02 0.34 -0.005
0.04 0.34 -0.005
0.06 0.34 -0.005
0.08 0.34 -0.005
0.1 0.34 -0.005
0.12 0.34 -0.005
0.14 0.34 -0.005
0.16 0.34 -0.005
0.18 0.34 -0.005
0.2 0.34 -0.005
0.22 0.34 -0.005
0.24 0.34 -0.005
0.26 0.34 -0.005
0.28 0.34 -0.005
0.3 0.34 -0.005
0.32 0.34 -0.005
0.34 0.34 -0.005
0.36 0.34 -0.005
0.38 0.34 -0.005
0.4 0.34 -0.005
0.42 0.34 -0.005
0.44 0.34 -0.005
0.46 0.34 -0.005
0.48 0.34 -0.005
0.5 0.34 -0.005
0.0 0.36 -0.005
0.02 0.36 -0.005
0.04 0.36 -0.005
0.06 0.36 -0.005
0.08 0.36 -0.005
0.1 0.36 -0.005
0.12 0.36 -0.005
0.14 0.36 -0.005
0.16 0.36 -0.005
0.18 0.36 -0.005
0.2 0.36 -0.005
0.22 0.36 -0.005
0.24 0.36 -0.005
0.26 0.36 -0.005
0.28 0.36 -0.005
0.3 0.36 -0.005
0.32 0.36 -0.005
0.34 0.36 -0.005
0.36 0.36 -0.005
0.38 0.36 -0.005
0.4 0.36 -0.005
0.42 0.36 -0.005
0.44 0.36 -0.005
0.46 0.36 -0.005
0.48 0.36 -0.005
0.5 0.36 -0.005
0.0 0.38 -0.005
0.02 0.38 -0.005
0.04 0.38 -0.005
0.06 0.38 -0.005
0.08 0.38 -0.005
0.1 0.38 -0.005
0.12 0.38 -0.005
0.14 0.38 -0.005
0.16 0.38 -0.005
0.18 0.38 -0.005
0.2 0.38 -0.005
0.22 0.38 -0.005
0.24 0.38 -0.005
0.26 0.38 -0.005
0.28 0.38 -0.005
0.3 0.38 -0.005
0.32 0.38 -0.005
0.34 0.38 -0.005
0.36 0.38 -0.005
0.38 0.38 -0.005
0.4 0.38 -0.005
0.42 0.38 -0.005
0.44 0.38 -0.005
0.46 0.38 -0.005
0.48 0.38 -0.005
0.5 0.38 -0.005
0.0 0.4 -0.005
0.02 0.4 -0.005
0.04 0.4 -0.005
0.06 0.4 -0.005
0.08 0.4 -0.005
0.1 0.4 -0.005
0.12 0.4 -0.005
0.14 0.4 -0.005
0.16 0.4 -0.005
0.18 0.4 -0.005
0.2 0.4 -0.005
0.22 0.4 -0.005
0.24 0.4 -0.005
0.26 0.4 -0.005
0.28 0.4 -0.005
0.3 0.4 -0.005
0.32 0.4 -0.005
0.34 0.4 -0.005
0.36 0.4 -0.005
0.38 0.4 -0.005
0.4 0.4 -0.005
0.42 0.4 -0.005
0.44 0.4 -0.005
0.46 0.4 -0.005
0.48 0.4 -0.005
0.5 0.4 -0.005
0.0 0.42 -0.005
0.02 0.42 -0.005
0.04 0.42 -0.005
0.06 0.42 -0.005
0.08 0.42 -0.005
0.1 0.42 -0.005
0.12 0.42 -0.005
0.14 0.42 -0.005
0.16 0.42 -0.005
0.18 0.42 -0.005
0.2 0.42 -0.005
0.22 0.42 -0.005
0.24 0.42 -0.005
0.26 0.42 -0.005
0.28 0.42 -0.005
0.3 0.42 -0.005
0.32 0.42 -0.005
0.34 0.42 -0.005
0.36 0.42 -0.005
0.38 0.42 -0.005
0.4 0.42 -0.005
0.42 0.42 -0.005
0.44 0.42 -0.005
0.46 0.42 -0.005
0.48 0.42 -0.005
0.5 0.42 -0.005
0.0 0.44 -0.005
0.02 0.44 -0.005
0.04 0.44 -0.005
0.06 0.44 -0.005
0.08 0.44 -0.005
0.1 0.44 -0.005
0.12 0.44 -0.005
0.14 0.44 -0.005
0.16 0.44 -0.005
0.18 0.44 -0.005
0.2 0.44 -0.005
0.22 0.44 -0.005
0.24 0.44 -0.005
0.26 0.44 -0.005
0.28 0.44 -0.005
0.3 0.44 -0.005
0.32 0.44 -0.005
0.34 0.44 -0.005
0.36 0.44 -0.005
0.38 0.44 -0.005
0.4 0.44 -0.005
0.42 0.44 -0.005
0.44 0.44 -0.005
0.46 0.44 -0.005
0.48 0.44 -0.005
0.5 0.44 -0.005
[...]
CELL_DATA 3750
SCALARS P float 1
LOOKUP_TABLE default
99999.9963327419
100000.00635933547
99999.99636858936
99999.98973421608
100000.00625592741
99999.99665134051
100000.01735534413
99999.98985742974
100000.0057215475
99999.99702177245
99999.97146121353
100000.01711285705
99999.99072528542
100000.00501646906
99999.99745618363
100000.0477430958
99999.97179836592
100000.01556739524
99999.99186284751
100000.00420021708
99999.99791088527
99999.92087795086
100000.04720836469
99999.97441986922
100000.01354346651
99999.99317922024
100000.00336302497
99999.99834911602
100000.13189475224
99999.92157868373
100000.04262507682
99999.9778386909
100000.01121776589
99999.9945267447
100000.00257770832
99999.99874335383
99999.78076992634
100000.1310992262
99999.92950556004
100000.03666595287
99999.98174944891
100000.00886222647
99999.99578891123
100000.0018939289
99999.99907751102
100000.36505204572
99999.7811485901
100000.11723465993
99999.93976330783
100000.02989183848
99999.98567639834
100000.00668677049
99999.99688746233
100000.00133569565
99999.99934612804
99999.39269123052
100000.36658607531
99999.80544097138
100000.09938729357
99999.95134570068
100000.0231587069
99999.98926492072
100000.00482621197
99999.99778554203
100000.00090536749
99999.99955193854
100001.01073655422
99999.38521817811
100000.32369474483
99999.83648879094
100000.07939024558
99999.96272445747
100000.01708436506
99999.9922984914
100000.0033369647
99999.99848045662
100000.00059049504
99999.99970282792
99998.3184349069
100001.0340779151
99999.46145962353
100000.26936922685
99999.87095483093
100000.05999093068
99999.97284299831
100000.01202648054
99999.99469819594
100000.00221312887
99999.99899239934
100000.00037093775
99999.99980901938
100002.79815327685
99998.25613989346
100000.89736300187
99999.55689022673
100000.20972223784
99999.90390163343
100000.0430024598
99999.98113193111
100000.00809419951
99999.99648917124
100000.00140928575
99999.99935316038
100000.00022459483
99999.99988094934
99995.34181572123
100002.95067401609
99998.50360653337
100000.72878588988
99999.66025676296
100000.15363055236
99999.9322478682
100000.02932469471
99999.98746402736
100000.0052168075
99999.99775824384
100000.00086216387
99999.99959728023
100000.00013113412
99999.99992794775
100007.7664213382
99994.99054681607
100002.4982416892
99998.8031192375
100000.54920608958
99999.7556412226
100000.10629076418
99999.95462259786
100000.01907214896
99999.99201395652
100000.00322359121
99999.99861637577
100000.00050678944
99999.999756424
100000.00007384385
99999.99995762474
99987.00928127517
100008.5336883744
99995.82571108239
100001.96268939694
99999.11564612672
100000.38700907269
99999.83440023934
100000.06970649089
99999.97103905845
100000.01185477672
99999.9951091572
100000.0019109167
99999.99917247621
100000.00028607593
99999.9998566551
100000.000040095
99999.99997576397
100021.87052374292
99985.42075895477
100006.97924228055
99996.78968036467
100001.41799419628
99999.39106527023
100000.25629975798
99999.89382746878
100000.04346652776
99999.98233690078
100000.00705308908
99999.99711285201
100000.00108654522
99999.99951915446
100000.00015485889
99999.9999177943
100000.00002097567
99999.99998651103
99962.75869372752
100024.94589955767
99988.32910167593
100005.23270141237
99997.73968661351
100000.95124346447
99999.60700259564
100000.16021956998
99999.93537500653
100000.0258362848
99999.98967851505
100000.00401997779
99999.99835248664
100000.00059189212
99999.99972779294
100000.00008016957
99999.99995399373
100000.00001055781
99999.9999926896
100064.67348298713
99957.34011656785
100019.50129364367
99991.51303277697
100003.57645389088
99998.52811887348
100000.59641265827
99999.76114639617
100000.09488220057
99999.96254533151
100000.0146659366
99999.99420623279
100000.00219477889
99999.99908823373
100000.00030805603
99999.99984942084
100000.00003950167
99999.99997483984
100000.00000510071
99999.99999614037
99884.06085778357
100072.59653117078
99967.46465686367
100013.66759434904
99994.39559617019
100002.25107462564
99999.10695817575
100000.35123577094
99999.86276607153
100000.05337913496
99999.9792779553
100000.00795926276
99999.99686714339
100000.00114618547
99999.9995086971
100000.00015236902
99999.99991833944
100000.00001836878
99999.9999865367
100000.00000235612
99999.99999801413
100219.56271753536
99877.4769997279
100054.08229030891
99978.19548433235
100008.67018692497
99996.60857330215
100001.31566349753
99999.49254474611
100000.1950501974
99999.92523973303
100000.02858632842
99999.98903050293
100000.00413000779
99999.99836254856
100000.00057047412
99999.99974095676
100000.0000709089
99999.99995643445
100000.00000793613
99999.9999929427
100000.00000103391
99999.9999990038
99538.62707612306
100203.72885356663
99910.38392089042
100034.31510536712
99986.81040314947
100005.01100763134
99998.10181514788
100000.71772284474
99999.72887926457
100000.10242617442
99999.96129568917
100000.01458998134
99999.9944305229
100000.00204591251
99999.99916885945
100000.00026856373
99999.99986552457
100000.00003044213
99999.99997705409
100000.00000308407
99999.9999963721
100000.00000042643
99999.99999951267
101183.81670607874
99659.01203516539
100147.71172533977
99946.89498324839
100019.60153886015
99992.78361166871
100002.66584140166
99999.01249037174
100000.36683717901
99999.86343992616
100000.05095509207
99999.98092297386
100000.00709707479
99999.99727949903
100000.00096343669
99999.99958750333
100000.00011774842
99999.999930749
100000.00001153303
99999.99998802724
100000.00000099142
99999.99999816944
100000.00000016192
99999.99999976752
95614.72923981491
100604.33047187023
99754.87157622687
100080.15819444276
99971.78180940414
100010.02930508913
99996.38875707191
100001.31112861383
99999.52087107838
100000.17605606499
99999.9350499474
100000.02403320461
99999.9910333147
100000.00328447438
99999.99871540238
100000.00042711393
99999.99979780348
100000.0000464463
99999.99996432294
100000.0000033757
99999.99999379228
100000.00000018178
99999.99999909257
100000.0000000542
99999.99999989173
98638.74438440522
128625.3631209288
100408.9590620214
99882.92638821885
100038.65888645792
99986.75696527403
100004.6500786998
99998.34201026984
100000.59760798381
99999.78289987541
100000.07939980534
99999.97081134882
100000.0107404553
99999.99597241309
100000.00143865767
99999.99940870267
100000.00017439044
99999.9999007201
100000.00001497865
99999.9999814586
100000.00000026023
99999.99999679433
99999.99999992429
99999.99999955771
100000.00000001414
99999.99999995086
99354.45074132983
103341.69641109194
156262.5793242219
100157.64587126787
99951.41268818783
100016.09010537763
99994.45329387819
100001.95450054099
99999.30135151933
100000.25235355855
99999.90818409427
100000.03361947379
99999.9876067236
100000.00453494591
99999.9982639894
100000.00058887959
99999.99973069203
100000.00006200963
99999.99995030712
100000.00000240747
99999.999990216
99999.99999932887
99999.99999834901
99999.99999987925
99999.99999978807
100000.00000000105
99999.99999997817
99853.27744659185
100321.01124418231
113952.95731818286
174650.40695011857
100049.10456872014
99983.38557457198
100005.79628865798
99997.93968246169
100000.74142659521
99999.73088232029
100000.09838863372
99999.96385936391
100000.01332255565
99999.99502949197
100000.00179537204
99999.99927499022
100000.00021812215
99999.99987559298
100000.00001570523
99999.9999742004
99999.99999822228
99999.99999474188
99999.99999923763
99999.99999915189
99999.99999990087
99999.99999990003
99999.99999999806
99999.9999999907
99988.34248384631
99806.8398632374
105123.73077172354
128387.25068981983
183458.70446054812
100010.46066506121
99995.50494662941
100001.75499482469
99999.33398615489
100000.25043056138
99999.90619878327
100000.03513822357
99999.98683540926
100000.00490535797
99999.99811367037
100000.00065352343
99999.99970004281
100000.00006626901
99999.99993968304
99999.99999882611
99999.9999859537
99999.99999742466
99999.99999712549
99999.99999940187
99999.99999956581
99999.99999993359
99999.99999995367
99999.99999999806
99999.99999999619
100009.29699610997
99889.20868485278
101016.5013738591
114466.18215119242
143335.9065536857
185120.27061333228
100000.45393773439
99999.21894969861
100000.40851499786
99999.82171777479
100000.07299667264
99999.97104691852
100000.01131201828
99999.99560390312
100000.00165040276
99999.99931553511
100000.00020652467
99999.99987140579
100000.00000931349
99999.99996828489
99999.99999415751
99999.99999198524
99999.99999778585
99999.99999840921
99999.99999959556
99999.999999779
99999.99999996001
99999.99999997883
99999.99999999868
99999.9999999984
100006.00019845035
99968.23442419466
100102.06998545551
104729.95229146523
127389.47057698626
155868.51484076952
182932.306978444
99999.12100902223
100000.04595029065
100000.04729156775
99999.96631495806
100000.01693218251
99999.99245968505
100000.00316981749
99999.99867067384
100000.00048449497
99999.9997533719
100000.00004442382
99999.99993885717
99999.99999113844
99999.99998170098
99999.99999403457
99999.99999526088
99999.99999839699
99999.99999911495
99999.99999974907
99999.99999988831
99999.99999997763
99999.99999999056
99999.99999999921
99999.99999999945
100002.05270878207
99996.00244524221
99967.02004646733
101306.06737199724
111885.32869229649
141454.0436320194
164553.27825911288
179429.2732285537
99999.48308650978
100000.10908698641
99999.98326964748
99999.99944983498
100000.00222973884
99999.99855928564
100000.00070028302
99999.99963644733
100000.00010299425
99999.99990247222
99999.99999212094
99999.99996597708
99999.9999876364
99999.99998861481
99999.99999526015
99999.99999714213
99999.99999893975
99999.99999950833
99999.99999985332
99999.9999999441
99999.99999998813
99999.99999999585
99999.99999999965
99999.9999999999
100000.38968719817
100001.39308143787
99977.67980528825
100266.87932780385
104406.46727604058
122404.20789204698
153953.2175327019
169562.01245485333
176066.98025493138
99999.82382057262
100000.05398731971
99999.98581306312
100000.00319764247
99999.99952128765
99999.9999283864
100000.00006696313
99999.99990075013
99999.99999281348
99999.99995090562
99999.99997926512
99999.99997810923
99999.9999890073
99999.99999260652
99999.9999966216
99999.99999826869
99999.99999933853
99999.99999972907
99999.99999991791
99999.99999997244
99999.99999999406
99999.99999999818
99999.99999999978
100000.00000000001
99999.96927726193
100001.1249130471
99993.06656353398
100029.13180077754
101351.64335113969
110251.27495774576
134867.69658584925
163199.1491309244
171878.58155515583
173448.82726387843
99999.96524494007
100000.01693294979
99999.99411532392
100000.00180551517
99999.99949871305
100000.00008784136
99999.99994792833
99999.99995886971
99999.9999679844
99999.99996744333
99999.99997929945
99999.9999846986
99999.99999152317
99999.99999513399
99999.99999773837
99999.99999895814
99999.99999960462
99999.99999985257
99999.99999995583
99999.99999998657
99999.99999999712
99999.99999999927
99999.99999999983
99999.99999999997
99999.93900352968
100000.41295624153
99998.96335169817
99993.59026405001
100350.07199179563
103915.32012374922
119105.1567663419
147093.49922685119
168911.07656837287
172570.5874385134
171685.01044013715
100000.00192686357
100000.00298355184
99999.99838793436
100000.00063134797
99999.99976227773
100000.00003581996
99999.9999435447
99999.99996739201
99999.99996697909
99999.99997495321
99999.9999828326
99999.99998902877
99999.99999390401
99999.99999681574
99999.99999854952
99999.99999938172
99999.99999977152
99999.99999992097
99999.9999999769
99999.99999999355
99999.99999999868
99999.9999999997
100000.00000000009
100000.00000000006
99999.9715607517
100000.08376559093
100000.21771868078
99995.026093369
100071.02726578443
101306.55348977105
108706.7978891366
130207.23373331092
157206.53505376694
171768.89635695994
172449.40069772865
170659.1473571017
100000.0051486309
99999.99964943832
99999.99979018953
100000.00013284592
99999.99990628276
99999.99998955193
99999.99995383355
99999.99996859717
99999.99997149305
99999.99998010666
99999.99998678036
99999.99999218459
99999.9999958033
99999.99999794933
99999.99999910005
99999.99999963977
99999.99999987193
99999.99999995853
99999.99999998845
99999.99999999699
99999.99999999937
99999.99999999993
100000.00000000007
100000.0
99999.99222265261
99999.99582601307
100000.21713687663
99998.3664885601
100008.17378839011
100382.40098332496
103445.9390680603
116162.43856596434
141909.32267931284
164349.29089855743
172755.62875240773
172022.0171015367
170176.54987237902
100000.00254881116
99999.99945833949
100000.00006358349
99999.99998593592
99999.99995475302
99999.99996964981
99999.99996162826
99999.99997095387
99999.99997672385
99999.99998445968
99999.99999023708
99999.99999454286
99999.99999720314
99999.99999870648
99999.99999945705
99999.99999979431
99999.99999993005
99999.99999997865
99999.99999999434
99999.99999999865
99999.99999999978
100000.0
100000.00000000009
100000.00000000003
99999.99929639832
99999.98812364225
100000.08419557557
99999.71964837739
99998.61748032065
100096.3743455428
101213.7705670385
107416.94622821566
125975.47330380326
152409.56568051333
168666.2049407047
172731.16618650593
171559.67329228006
170040.0230238911
100000.00075568372
99999.99974372698
100000.00004549608
99999.99995897913
99999.99996471823
99999.99996477707
99999.99996710391
99999.99997476723
99999.99998156908
99999.99998821063
99999.99999300973
99999.99999628193
99999.99999818679
99999.99999920232
99999.99999968056
99999.99999988492
99999.99999996267
99999.99999998925
99999.99999999735
99999.99999999946
99999.99999999983
99999.99999999996
100000.00000000001
100000.00000000003
100000.00057950978
99999.99430085777
100000.01814336641
100000.02998366812
99998.79613746238
100019.3870943243
100385.69572269428
103004.84590379418
113725.46677805386
136980.6259353438
160526.60538786344
170847.89661047666
172284.96328637737
171181.02118238338
170089.6217863847
100000.0000936427
99999.99991739505
99999.99999974004
99999.99995949841
99999.99996519726
99999.99996611635
99999.99997183123
99999.99997914385
99999.99998579177
99999.999991324
99999.99999512863
99999.99999753003
99999.99999885348
99999.99999951926
99999.99999981651
99999.9999999372
99999.9999999806
99999.99999999462
99999.9999999987
99999.99999999977
100000.00000000001
99999.99999999996
100000.00000000003
100000.00000000003
100000.00040413353
99999.9984220985
99999.99966195504
100000.04337993846
99999.5855232638
100002.28514885271
100109.7776548963
101104.27485822626
106314.93369275503
122366.38003622665
147577.65974563087
165977.95867596514
171675.9525212552
171754.75195041788
170916.97674195346
170224.47751287397
99999.99994774911
99999.99997342355
99999.99997454621
99999.99996253697
99999.99996571698
99999.99996968855
99999.9999764133
99999.99998341566
99999.99998933678
99999.99999379623
99999.99999669052
99999.99999839948
99999.99999929215
99999.99999971686
99999.99999989694
99999.9999999664
99999.99999999012
99999.99999999757
99999.9999999995
99999.99999999988
100000.00000000001
100000.00000000003
100000.00000000003
100000.00000000003
100000.00014768142
99999.99984759813
99999.99774676691
100000.01802376432
99999.91998753538
99999.66625004922
100027.18290696038
100372.35624538736
102610.34222222875
111664.90443374708
132582.58770562822
156422.3363759431
169156.10174819277
171778.4280007166
171299.25151902318
170759.82345569244
170369.4374839144
99999.99994539628
99999.99997953272
99999.99996530626
99999.99996480253
99999.99996798148
99999.99997398438
99999.99998083175
99999.99998723246
99999.99999220874
99999.999995682
99999.99999780617
99999.99999898748
99999.99999957281
99999.99999983679
99999.99999994342
99999.99999998239
99999.999999995
99999.9999999988
99999.99999999978
99999.99999999997
100000.00000000003
100000.0
100000.00000000003
100000.00000000007
100000.00002539386
100000.00010080694
99999.99889512976
100000.00417472869
100000.002152211
99999.68628775605
100005.41350018058
100115.05726128406
100991.85913702771
105384.13192494771
119243.85796224255
143037.65773019247
162886.52623533361
170724.5556137209
171568.74699489312
170972.11171257606
170681.7244711264
170497.8985142125
99999.99995895234
99999.99997384418
99999.99996353501
99999.99996715595
99999.99997155026
99999.99997839259
99999.99998489427
99999.99999045156
99999.99999445444
99999.99999707004
99999.9999985799
99999.99999937412
99999.99999974784
99999.99999990812
99999.99999996956
99999.99999999096
99999.99999999751
99999.99999999945
99999.99999999994
99999.9999999999
99999.99999999996
100000.00000000001
100000.00000000003
100000.00000000003
99999.999985889
100000.00005833618
99999.99970966077
100000.00005099711
100000.0090029456
99999.8878017404
100000.63721285347
100032.11701931572
100350.26173429417
102263.07613701401
109931.31351515527
128625.16252253116
152359.62327011212
167053.55708633678
171313.36328418952
171281.09984867758
170769.29362555576
170656.25056834376
170592.84776527964
99999.99996463594
99999.99996905509
99999.99996486265
99999.99997019062
99999.99997573023
99999.99998258981
99999.99998844099
99999.99999304907
99999.99999615172
99999.99999805949
99999.99999910175
99999.99999962168
99999.99999985434
99999.99999994927
99999.99999998396
99999.99999999546
99999.99999999894
99999.99999999985
99999.99999999994
99999.99999999996
100000.00000000003
100000.00000000001
100000.00000000003
100000.00000000003
99999.99997555546
100000.00000167174
99999.99999097812
99999.9995208807
100000.00417769385
99999.97610409743
99999.90881261742
100007.83799717556
100115.01256754911
100884.12663191096
104598.37681274151
116559.83180324158
138758.29745172866
159666.8719705057
169419.5769366347
171391.04852073442
171026.29396095368
170664.5725448048
170659.56938238646
170654.9845426205
99999.99996519594
99999.99996733037
99999.9999676385
99999.99997386767
99999.99997999686
99999.99998637268
99999.9999913972
99999.99999506814
99999.99999739404
99999.99999874445
99999.99999944436
99999.99999977628
99999.99999991762
99999.99999997261
99999.99999999178
99999.99999999777
99999.99999999956
100000.00000000001
100000.00000000004
99999.99999999996
100000.00000000003
100000.00000000003
100000.00000000003
100000.00000000003
99999.99997201252
99999.99997445874
100000.00003275713
99999.99972210784
100000.0011420835
99999.99907379936
99999.91278343213
100001.54160464357
100034.85055549163
100324.1059766202
101961.54891897351
108471.62609719261
125099.1735541211
148338.0256680452
164751.75550957624
170575.11069474238
171253.78330748552
170842.720533516
170626.0177558616
170675.03152404836
170687.6109262534
99999.99996496973
99999.99996806742
99999.99997122031
99999.9999778689
99999.99998401139
99999.99998962578
99999.99999376303
99999.99999658561
99999.9999982762
99999.99999920558
99999.99999966376
99999.99999987052
99999.99999995451
99999.99999998554
99999.99999999585
99999.99999999898
99999.99999999984
100000.00000000006
100000.00000000009
100000.00000000007
100000.00000000003
100000.00000000003
100000.00000000003
100000.00000000003
99999.99996984296
99999.99996563797
100000.00001338973
99999.99988829932
100000.0001519245
100000.0017503424
99999.96821028047
100000.17717510123
100009.5778238325
100111.64215165008
100784.59167798905
103936.27935886277
114255.07776272102
134776.6908945731
156321.22632818506
167914.8074529887
171017.85191568872
171064.58717631956
170730.9113439264
170625.7145415994
170691.67804009892
170702.33659298718
99999.99996580681
99999.99997040202
99999.99997521924
99999.99998185325
99999.99998757783
99999.99999230931
99999.99999558971
99999.99999769148
99999.99999888545
99999.99999950822
99999.99999980071
99999.99999992661
99999.99999997535
99999.99999999253
99999.99999999804
99999.99999999958
99999.99999999997
100000.00000000001
100000.00000000001
100000.00000000003
100000.00000000003
100000.00000000003
100000.00000000003
100000.00000000003
99999.9999687839
99999.99996386851
99999.99999230272
99999.99995165507
99999.99997515528
100000.000852912
99999.99298303982
99999.97173405216
100002.3063251167
100035.9686737897
100296.72728608041