# vtk DataFile Version 2.0
JuliaCFD
ASCII
DATASET UNSTRUCTURED_GRID

POINTS 7752 float
0.0 0.0 -0.005
0.02 0.0 -0.005
0.04 0.0 -0.005
0.06 0.0 -0.005
0.08 0.0 -0.005
0.1 0.0 -0.005
0.12 0.0 -0.005
0.14 0.0 -0.005
0.16 0.0 -0.005
0.18 0.0 -0.005
0.2 0.0 -0.005
0.22 0.0 -0.005
0.24 0.0 -0.005
0.26 0.0 -0.005
0.28 0.0 -0.005
0.3 0.0 -0.005
0.32 0.0 -0.005
0.34 0.0 -0.005
0.36 0.0 -0.005
0.38 0.0 -0.005
0.4 0.0 -0.005
0.42 0.0 -0.005
0.44 0.0 -0.005
0.46 0.0 -0.005
0.48 0.0 -0.005
0.5 0.0 -0.005
0.0 0.02 -0.005
0.02 0.02 -0.005
0.04 0.02 -0.005
0.06 0.02 -0.005
0.08 0.02 -0.005
0.1 0.02 -0.005
0.12 0.02 -0.005
0.14 0.02 -0.005
0.16 0.02 -0.005
0.18 0.02 -0.005
0.2 0.02 -0.005
0.22 0.02 -0.005
0.24 0.02 -0.005
0.26 0.02 -0.005
0.28 0.02 -0.005
0.3 0.02 -0.005
0.32 0.02 -0.005
0.34 0.02 -0.005
0.36 0.02 -0.005
0.38 0.02 -0.005
0.4 0.02 -0.005
0.42 0.02 -0.005
0.44 0.02 -0.005
0.46 0.02 -0.005
0.48 0.02 -0.005
0.5 0.02 -0.005
0.0 0.04 -0.005
0.02 0.04 -0.005
0.04 0.04 -0.005
0.06 0.04 -0.005
0.08 0.04 -0.005
0.1 0.04 -0.005
0.12 0.04 -0.005
0.14 0.04 -0.005
0.16 0.04 -0.005
0.18 0.04 -0.005
0.2 0.04 -0.005
0.22 0.04 -0.005
0.24 0.04 -0.005
0.26 0.04 -0.005
0.28 0.04 -0.005
0.3 0.04 -0.005
0.32 0.04 -0.005
0.34 0.04 -0.005
0.36 0.04 -0.005
0.38 0.04 -0.005
0.4 0.04 -0.005
0.42 0.04 -0.005
0.44 0.04 -0.005
0.46 0.04 -0.005
0.48 0.04 -0.005
0.5 0.04 -0.005
0.0 0.06 -0.005
0.02 0.06 -0.005
0.04 0.06 -0.005
0.06 0.06 -0.005
0.08 0.06 -0.005
0.1 0.06 -0.005
0.12 0.06 -0.005
0.14 0.06 -0.005
0.16 0.06 -0.005
0.18 0.06 -0.005
0.2 0.06 -0.005
0.22 0.06 -0.005
0.24 0.06 -0.005
0.26 0.06 -0.005
0.28 0.06 -0.005
0.3 0.06 -0.005
0.32 0.06 -0.005
0.34 0.06 -0.005
0.36 0.06 -0.005
0.38 0.06 -0.005
0.4 0.06 -0.005
0.42 0.06 -0.005
0.44 0.06 -0.005
0.46 0.06 -0.005
0.48 0.06 -0.005
0.5 0.06 -0.005
0.0 0.08 -0.005
0.02 0.08 -0.005
0.04 0.08 -0.005
0.06 0.08 -0.005
0.08 0.08 -0.005
0.1 0.08 -0.005
0.12 0.08 -0.005
0.14 0.08 -0.005
0.16 0.08 -0.005
0.18 0.08 -0.005
0.2 0.08 -0.005
0.22 0.08 -0.005
0.24 0.08 -0.005
0.26 0.08 -0.005
0.28 0.08 -0.005
0.3 0.08 -0.005
0.32 0.08 -0.005
0.34 0.08 -0.005
0.36 0.08 -0.005
0.38 0.08 -0.005
0.4 0.08 -0.005
0.42 0.08 -0.005
0.44 0.08 -0.005
0.46 0.08 -0.005
0.48 0.08 -0.005
0.5 0.08 -0.005
0.0 0.1 -0.005
0.02 0.1 -0.005
0.04 0.1 -0.005
0.06 0.1 -0.005
0.08 0.1 -0.005
0.1 0.1 -0.005
0.12 0.1 -0.005
0.14 0.1 -0.005
0.16 0.1 -0.005
0.18 0.1 -0.005
0.2 0.1 -0.005
0.22 0.1 -0.005
0.24 0.1 -0.005
0.26 0.1 -0.005
0.28 0.1 -0.005
0.3 0.1 -0.005
0.32 0.1 -0.005
0.34 0.1 -0.005
0.36 0.1 -0.005
0.38 0.1 -0.005
0.4 0.1 -0.005
0.42 0.1 -0.005
0.44 0.1 -0.005
0.46 0.1 -0.005
0.48 0.1 -0.005
0.5 0.1 -0.005
0.0 0.12 -0.005
0.02 0.12 -0.005
0.04 0.12 -0.005
0.06 0.12 -0.005
0.08 0.12 -0.005
0.1 0.12 -0.005
0.12 0.12 -0.005
0.14 0.12 -0.005
0.16 0.12 -0.005
0.18 0.12 -0.005
0.2 0.12 -0.005
0.22 0.12 -0.005
0.24 0.12 -0.005
0.26 0.12 -0.005
0.28 0.12 -0.005
0.3 0.12 -0.005
0.32 0.12 -0.005
0.34 0.12 -0.005
0.36 0.12 -0.005
0.38 0.12 -0.005
0.4 0.12 -0.005
0.42 0.12 -0.005
0.44 0.12 -0.005
0.46 0.12 -0.005
0.48 0.12 -0.005
0.5 0.12 -0.005
0.0 0.14 -0.005
0.02 0.14 -0.005
0.04 0.14 -0.005
0.06 0.14 -0.005
0.08 0.14 -0.005
0.1 0.14 -0.005
0.12 0.14 -0.005
0.14 0.14 -0.005
0.16 0.14 -0.005
0.18 0.14 -0.005
0.2 0.14 -0.005
0.22 0.14 -0.005
0.24 0.14 -0.005
0.26 0.14 -0.005
0.28 0.14 -0.005
0.3 0.14 -0.005
0.32 0.14 -0.005
0.34 0.14 -0.005
0.36 0.14 -0.005
0.38 0.14 -0.005
0.4 0.14 -0.005
0.42 0.14 -0.005
0.44 0.14 -0.005
0.46 0.14 -0.005
0.48 0.14 -0.005
0.5 0.14 -0.005
0.0 0.16 -0.005
0.02 0.16 -0.005
0.04 0.16 -0.005
0.06 0.16 -0.005
0.08 0.16 -0.005
0.1 0.16 -0.005
0.12 0.16 -0.005
0.14 0.16 -0.005
0.16 0.16 -0.005
0.18 0.16 -0.005
0.2 0.16 -0.005
0.22 0.16 -0.005
0.24 0.16 -0.005
0.26 0.16 -0.005
0.28 0.16 -0.005
0.3 0.16 -0.005
0.32 0.16 -0.005
0.34 0.16 -0.005
0.36 0.16 -0.005
0.38 0.16 -0.005
0.4 0.16 -0.005
0.42 0.16 -0.005
0.44 0.16 -0.005
0.46 0.16 -0.005
0.48 0.16 -0.005
0.5 0.16 -0.005
0.0 0.18 -0.005
0.02 0.18 -0.005
0.04 0.18 -0.005
0.06 0.18 -0.005
0.08 0.18 -0.005
0.1 0.18 -0.005
0.12 0.18 -0.005
0.14 0.18 -0.005
0.16 0.18 -0.005
0.18 0.18 -0.005
0.2 0.18 -0.005
0.22 0.18 -0.005
0.24 0.18 -0.005
0.26 0.18 -0.005
0.28 0.18 -0.005
0.3 0.18 -0.005
0.32 0.18 -0.005
0.34 0.18 -0.005
0.36 0.18 -0.005
0.38 0.18 -0.005
0.4 0.18 -0.005
0.42 0.18 -0.005
0.44 0.18 -0.005
0.46 0.18 -0.005
0.48 0.18 -0.005
0.5 0.18 -0.005
0.0 0.2 -0.005
0.02 0.2 -0.005
0.04 0.2 -0.005
0.06 0.2 -0.005
0.08 0.2 -0.005
0.1 0.2 -0.005
0.12 0.2 -0.005
0.14 0.2 -0.005
0.16 0.2 -0.005
0.18 0.2 -0.005
0.2 0.2 -0.005
0.22 0.2 -0.005
0.24 0.2 -0.005
0.26 0.2 -0.005
0.28 0.2 -0.005
0.3 0.2 -0.005
0.32 0.2 -0.005
0.34 0.2 -0.005
0.36 0.2 -0.005
0.38 0.2 -0.005
0.4 0.2 -0.005
0.42 0.2 -0.005
0.44 0.2 -0.005
0.46 0.2 -0.005
0.48 0.2 -0.005
0.5 0.2 -0.005
0.0 0.22 -0.005
0.02 0.22 -0.005
0.04 0.22 -0.005
0.06 0.22 -0.005
0.08 0.22 -0.005
0.1 0.22 -0.005
0.12 0.22 -0.005
0.14 0.22 -0.005
0.16 0.22 -0.005
0.18 0.22 -0.005
0.2 0.22 -0.005
0.22 0.22 -0.005
0.24 0.22 -0.005
0.26 0.22 -0.005
0.28 0.22 -0.005
0.3 0.22 -0.005
0.32 0.22 -0.005
0.34 0.22 -0.005
0.36 0.22 -0.005
0.38 0.22 -0.005
0.4 0.22 -0.005
0.42 0.22 -0.005
0.44 0.22 -0.005
0.46 0.22 -0.005
0.48 0.22 -0.005
0.5 0.22 -0.005
0.0 0.24 -0.005
0.02 0.24 -0.005
0.04 0.24 -0.005
0.06 0.24 -0.005
0.08 0.24 -0.005
0.1 0.24 -0.005
0.12 0.24 -0.005
0.14 0.24 -0.005
0.16 0.24 -0.005
0.18 0.24 -0.005
0.2 0.24 -0.005
0.22 0.24 -0.005
0.24 0.24 -0.005
0.26 0.24 -0.005
0.28 0.24 -0.005
0.3 0.24 -0.005
0.32 0.24 -0.005
0.34 0.24 -0.005
0.36 0.24 -0.005
0.38 0.24 -0.005
0.4 0.24 -0.005
0.42 0.24 -0.005
0.44 0.24 -0.005
0.46 0.24 -0.005
0.48 0.24 -0.005
0.5 0.24 -0.005
0.0 0.26 -0.005
0.02 0.26 -0.005
0.04 0.26 -0.005
0.06 0.26 -0.005
0.08 0.26 -0.005
0.1 0.26 -0.005
0.12 0.26 -0.005
0.14 0.26 -0.005
0.16 0.26 -0.005
0.18 0.26 -0.005
0.2 0.26 -0.005
0.22 0.26 -0.005
0.24 0.26 -0.005
0.26 0.26 -0.005
0.28 0.26 -0.005
0.3 0.26 -0.005
0.32 0.26 -0.005
0.34 0.26 -0.005
0.36 0.26 -0.005
0.38 0.26 -0.005
0.4 0.26 -0.005
0.42 0.26 -0.005
0.44 0.26 -0.005
0.46 0.26 -0.005
0.48 0.26 -0.005
0.5 0.26 -0.005
0.0 0.28 -0.005
0.02 0.28 -0.005
0.04 0.28 -0.005
0.06 0.28 -0.005
0.08 0.28 -0.005
0.1 0.28 -0.005
0.12 0.28 -0.005
0.14 0.28 -0.005
0.16 0.28 -0.005
0.18 0.28 -0.005
0.2 0.28 -0.005
0.22 0.28 -0.005
0.24 0.28 -0.005
0.26 0.28 -0.005
0.28 0.28 -0.005
0.3 0.28 -0.005
0.32 0.28 -0.005
0.34 0.28 -0.005
0.36 0.28 -0.005
0.38 0.28 -0.005
0.4 0.28 -0.005
0.42 0.28 -0.005
0.44 0.28 -0.005
0.46 0.28 -0.005
0.48 0.28 -0.005
0.5 0.28 -0.005
0.0 0.3 -0.005
0.02 0.3 -0.005
0.04 0.3 -0.005
0.06 0.3 -0.005
0.08 0.3 -0.005
0.1 0.3 -0.005
0.12 0.3 -0.005
0.14 0.3 -0.005
0.16 0.3 -0.005
0.18 0.3 -0.005
0.2 0.3 -0.005
0.22 0.3 -0.005
0.24 0.3 -0.005
0.26 0.3 -0.005
0.28 0.3 -0.005
0.3 0.3 -0.005
0.32 0.3 -0.005
0.34 0.3 -0.005
0.36 0.3 -0.005
0.38 0.3 -0.005
0.4 0.3 -0.005
0.42 0.3 -0.005
0.44 0.3 -0.005
0.46 0.3 -0.005
0.48 0.3 -0.005
0.5 0.3 -0.005
0.0 0.32 -0.005
0.02 0.32 -0.005
0.04 0.32 -0.005
0.06 0.32 -0.005
0.08 0.32 -0.005
0.1 0.32 -0.005
0.12 0.32 -0.005
0.14 0.32 -0.005
0.16 0.32 -0.005
0.18 0.32 -0.005
0.2 0.32 -0.005
0.22 0.32 -0.005
0.24 0.32 -0.005
0.26 0.32 -0.005
0.28 0.32 -0.005
0.3 0.32 -0.005
0.32 0.32 -0.005
0.34 0.32 -0.005
0.36 0.32 -0.005
0.38 0.32 -0.005
0.4 0.32 -0.005
0.42 0.32 -0.005
0.44 0.32 -0.005
0.46 0.32 -0.005
0.48 0.32 -0.005
0.5 0.32 -0.005
0.0 0.34 -0.005
0.02 0.34 -0.005
0.04 0.34 -0.005
0.06 0.34 -0.005
0.08 0.34 -0.005
0.1 0.34 -0.005
0.12 0.34 -0.005
0.14 0.34 -0.005
0.16 0.34 -0.005
0.18 0.34 -0.005
0.2 0.34 -0.005
0.22 0.34 -0.005
0.24 0.34 -0.005
0.26 0.34 -0.005
0.28 0.34 -0.005
0.3 0.34 -0.005
0.32 0.34 -0.005
0.34 0.34 -0.005
0.36 0.34 -0.005
0.38 0.34 -0.005
0.4 0.34 -0.005
0.42 0.34 -0.005
0.44 0.34 -0.005
0.46 0.34 -0.005
0.48 0.34 -0.005
0.5 0.34 -0.005
0.0 0.36 -0.005
0.02 0.36 -0.005
0.04 0.36 -0.005
0.06 0.36 -0.005
0.08 0.36 -0.005
0.1 0.36 -0.005
0.12 0.36 -0.005
0.14 0.36 -0.005
0.16 0.36 -0.005
0.18 0.36 -0.005
0.2 0.36 -0.005
0.22 0.36 -0.005
0.24 0.36 -0.005
0.26 0.36 -0.005
0.28 0.36 -0.005
0.3 0.36 -0.005
0.32 0.36 -0.005
0.34 0.36 -0.005
0.36 0.36 -0.005
0.38 0.36 -0.005
0.4 0.36 -0.005
0.42 0.36 -0.005
0.44 0.36 -0.005
0.46 0.36 -0.005
0.48 0.36 -0.005
0.5 0.36 -0.005
0.0 0.38 -0.005
0.02 0.38 -0.005
0.04 0.38 -0.005
0.06 0.38 -0.005
0.08 0.38 -0.005
0.1 0.38 -0.005
0.12 0.38 -0.005
0.14 0.38 -0.005
0.16 0.38 -0.005
0.18 0.38 -0.005
0.2 0.38 -0.005
0.22 0.38 -0.005
0.24 0.38 -0.005
0.26 0.38 -0.005
0.28 0.38 -0.005
0.3 0.38 -0.005
0.32 0.38 -0.005
0.34 0.38 -0.005
0.36 0.38 -0.005
0.38 0.38 -0.005
0.4 0.38 -0.005
0.42 0.38 -0.005
0.44 0.38 -0.005
0.46 0.38 -0.005
0.48 0.38 -0.005
0.5 0.38 -0.005
0.0 0.4 -0.005
0.02 0.4 -0.005
0.04 0.4 -0.005
0.06 0.4 -0.005
0.08 0.4 -0.005
0.1 0.4 -0.005
0.12 0.4 -0.005
0.14 0.4 -0.005
0.16 0.4 -0.005
0.18 0.4 -0.005
0.2 0.4 -0.005
0.22 0.4 -0.005
0.24 0.4 -0.005
0.26 0.4 -0.005
0.28 0.4 -0.005
0.3 0.4 -0.005
0.32 0.4 -0.005
0.34 0.4 -0.005
0.36 0.4 -0.005
0.38 0.4 -0.005
0.4 0.4 -0.005
0.42 0.4 -0.005
0.44 0.4 -0.005
0.46 0.4 -0.005
0.48 0.4 -0.005
0.5 0.4 -0.005
0.0 0.42 -0.005
0.02 0.42 -0.005
0.04 0.42 -0.005
0.06 0.42 -0.005
0.08 0.42 -0.005
0.1 0.42 -0.005
0.12 0.42 -0.005
0.14 0.42 -0.005
0.16 0.42 -0.005
0.18 0.42 -0.005
0.2 0.42 -0.005
0.22 0.42 -0.005
0.24 0.42 -0.005
0.26 0.42 -0.005
0.28 0.42 -0.005
0.3 0.42 -0.005
0.32 0.42 -0.005
0.34 0.42 -0.005
0.36 0.42 -0.005
0.38 0.42 -0.005
0.4 0.42 -0.005
0.42 0.42 -0.005
0.44 0.42 -0.005
0.46 0.42 -0.005
0.48 0.42 -0.005
0.5 0.42 -0.005
0.0 0.44 -0.005
0.02 0.44 -0.005
0.04 0.44 -0.005
0.06 0.44 -0.005
0.08 0.44 -0.005
0.1 0.44 -0.005
0.12 0.44 -0.005
0.14 0.44 -0.005
0.16 0.44 -0.005
0.18 0.44 -0.005
0.2 0.44 -0.005
0.22 0.44 -0.005
0.24 0.44 -0.005
0.26 0.44 -0.005
0.28 0.44 -0.005
0.3 0.44 -0.005
0.32 0.44 -0.005
0.34 0.44 -0.005
0.36 0.44 -0.005
0.38 0.44 -0.005
0.4 0.44 -0.005
0.42 0.44 -0.005
0.44 0.44 -0.005
0.46 0.44 -0.005
0.48 0.44 -0.005
0.5 0.44 -0.005
[...]
CELL_DATA 3750
SCALARS P float 1
LOOKUP_TABLE default
99999.9963327419
100000.00635933553
99999.99636858939
99999.98973421608
100000.00625592742
99999.9966513404
100000.01735534417
99999.98985742991
100000.0057215475
99999.99702177245
99999.9714612135
100000.01711285707
99999.99072528555
100000.00501646912
99999.99745618354
100000.04774309589
99999.97179836592
100000.01556739528
99999.99186284747
100000.00420021711
99999.99791088527
99999.92087795085
100000.04720836463
99999.9744198692
100000.01354346638
99999.99317922024
100000.00336302497
99999.99834911602
100000.13189475202
99999.92157868367
100000.0426250768
99999.97783869084
100000.0112177659
99999.9945267447
100000.00257770836
99999.99874335385
99999.78076992632
100000.1310992261
99999.92950556001
100000.03666595275
99999.98174944891
100000.00886222647
99999.99578891115
100000.00189392883
99999.99907751096
100000.36505204569
99999.78114859006
100000.11723465995
99999.93976330789
100000.02989183833
99999.9856763983
100000.00668677049
99999.99688746246
100000.00133569559
99999.99934612795
99999.39269123066
100000.36658607538
99999.8054409715
100000.09938729361
99999.95134570067
100000.02315870677
99999.98926492063
100000.00482621194
99999.99778554203
100000.00090536741
99999.99955193854
100001.01073655416
99999.38521817813
100000.32369474485
99999.83648879081
100000.07939024558
99999.96272445748
100000.01708436495
99999.99229849139
100000.00333696457
99999.99848045656
100000.00059049504
99999.99970282789
99998.31843490686
100001.03407791503
99999.46145962364
100000.26936922691
99999.87095483072
100000.05999093063
99999.97284299831
100000.01202648046
99999.99469819598
100000.00221312877
99999.99899239927
100000.0003709377
99999.99980901935
100002.79815327698
99998.2561398935
100000.89736300189
99999.5568902267
100000.20972223768
99999.90390163341
100000.0430024597
99999.9811319311
100000.00809419951
99999.99648917136
100000.00140928572
99999.9993531604
100000.00022459491
99999.9998809494
99995.34181572129
100002.95067401622
99998.50360653318
100000.72878588979
99999.66025676287
100000.1536305523
99999.93224786817
100000.0293246947
99999.98746402735
100000.00521680746
99999.99775824387
100000.00086216394
99999.99959728024
100000.00013113423
99999.99992794768
100007.76642133827
99994.99054681616
100002.49824168917
99998.8031192375
100000.54920608945
99999.75564122248
100000.10629076415
99999.9546225977
100000.01907214883
99999.99201395662
100000.00322359128
99999.99861637571
100000.00050678942
99999.999756424
100000.0000738439
99999.99995762476
99987.00928127524
100008.53368837447
99995.8257110825
100001.96268939707
99999.11564612684
100000.38700907258
99999.83440023937
100000.06970649099
99999.97103905842
100000.01185477676
99999.99510915714
100000.0019109167
99999.99917247621
100000.00028607606
99999.99985665499
100000.0000400949
99999.99997576399
100021.87052374298
99985.42075895485
100006.9792422805
99996.7896803647
100001.41799419626
99999.39106527023
100000.25629975795
99999.89382746874
100000.04346652773
99999.98233690072
100000.00705308901
99999.99711285204
100000.00108654515
99999.99951915446
100000.000154859
99999.99991779432
100000.0000209757
99999.99998651085
99962.75869372753
100024.94589955764
99988.32910167598
100005.23270141245
99997.73968661363
100000.95124346443
99999.60700259563
100000.16021956995
99999.93537500658
100000.02583628481
99999.98967851499
100000.00401997773
99999.99835248658
100000.00059189207
99999.99972779286
100000.00008016953
99999.99995399377
100000.000010558
99999.99999268951
100064.67348298701
99957.34011656775
100019.50129364358
99991.51303277694
100003.57645389093
99998.52811887361
100000.59641265825
99999.76114639631
100000.09488220054
99999.96254533141
100000.01466593657
99999.99420623285
100000.00219477892
99999.99908823364
100000.00030805607
99999.99984942083
100000.00003950154
99999.99997483968
100000.00000510078
99999.99999614047
99884.06085778358
100072.59653117071
99967.46465686357
100013.66759434901
99994.3955961702
100002.2510746257
99999.10695817582
100000.35123577101
99999.86276607154
100000.05337913494
99999.97927795528
100000.00795926272
99999.9968671433
100000.00114618537
99999.999508697
100000.00015236883
99999.9999183395
100000.00001836875
99999.99998653668
100000.00000235598
99999.99999801413
100219.56271753517
99877.4769997279
100054.08229030883
99978.19548433236
100008.67018692479
99996.60857330223
100001.31566349746
99999.49254474614
100000.19505019748
99999.92523973295
100000.02858632847
99999.98903050285
100000.00413000774
99999.99836254855
100000.00057047413
99999.99974095677
100000.00007090897
99999.9999564344
100000.0000079361
99999.9999929427
100000.00000103397
99999.9999990038
99538.62707612306
100203.72885356654
99910.38392089032
100034.3151053672
99986.81040314946
100005.01100763142
99998.10181514795
100000.71772284484
99999.72887926467
100000.1024261744
99999.9612956891
100000.01458998128
99999.9944305227
100000.0020459124
99999.99916885939
100000.00026856372
99999.99986552446
100000.00003044216
99999.9999770541
100000.00000308399
99999.99999637208
100000.00000042637
99999.9999995127
101183.8167060788
99659.01203516545
100147.71172533986
99946.89498324851
100019.60153886017
99992.78361166872
100002.66584140171
99999.01249037158
100000.366837179
99999.86343992609
100000.05095509205
99999.98092297389
100000.00709707475
99999.99727949896
100000.00096343686
99999.99958750309
100000.00011774841
99999.99993074898
100000.00001153305
99999.99998802727
100000.0000009913
99999.99999816935
100000.00000016182
99999.99999976752
95614.72923981502
100604.33047187017
99754.87157622691
100080.15819444276
99971.78180940426
100010.02930508913
99996.38875707188
100001.31112861393
99999.52087107833
100000.17605606503
99999.93504994748
100000.0240332047
99999.99103331474
100000.00328447434
99999.99871540231
100000.00042711389
99999.99979780338
100000.00004644634
99999.99996432294
100000.00000337565
99999.99999379234
100000.00000018181
99999.99999909244
100000.00000005422
99999.99999989188
98638.74438440529
128625.36312092855
100408.95906202131
99882.92638821888
100038.65888645794
99986.75696527405
100004.6500786998
99998.34201026986
100000.59760798393
99999.7828998755
100000.07939980534
99999.97081134886
100000.01074045533
99999.995972413
100000.00143865762
99999.99940870258
100000.00017439036
99999.99990071997
100000.00001497864
99999.9999814585
100000.00000026023
99999.99999679423
99999.99999992427
99999.9999995577
100000.00000001412
99999.99999995084
99354.45074132993
103341.69641109179
156262.5793242221
100157.64587126777
99951.41268818779
100016.09010537776
99994.4532938782
100001.95450054102
99999.3013515193
100000.25235355843
99999.90818409434
100000.03361947375
99999.98760672369
100000.00453494587
99999.99826398939
100000.0005888796
99999.99973069195
100000.0000620096
99999.99995030707
100000.00000240754
99999.99999021593
99999.99999932894
99999.9999983489
99999.9999998792
99999.99999978801
100000.00000000099
99999.99999997826
99853.27744659207
100321.01124418205
113952.95731818311
174650.40695011802
100049.10456872005
99983.38557457199
100005.796288658
99997.9396824617
100000.74142659525
99999.73088232038
100000.09838863375
99999.96385936398
100000.01332255537
99999.99502949191
100000.00179537188
99999.99927499016
100000.00021812208
99999.99987559293
100000.0000157052
99999.99997420044
99999.99999822235
99999.99999474185
99999.99999923754
99999.99999915187
99999.99999990093
99999.99999989997
99999.9999999979
99999.99999999064
99988.34248384644
99806.83986323717
105123.73077172373
128387.25068981912
183458.70446054876
100010.46066506115
99995.50494662946
100001.7549948247
99999.33398615502
100000.25043056135
99999.90619878328
100000.03513822358
99999.9868354092
100000.00490535799
99999.99811367042
100000.00065352336
99999.99970004268
100000.00006626893
99999.99993968286
99999.99999882602
99999.99998595384
99999.99999742465
99999.99999712541
99999.9999994018
99999.99999956584
99999.99999993357
99999.9999999536
99999.99999999814
99999.9999999962
100009.29699611022
99889.20868485255
101016.50137385931
114466.18215119196
143335.90655368642
185120.27061333117
100000.45393773433
99999.21894969873
100000.40851499791
99999.82171777495
100000.07299667274
99999.97104691854
100000.01131201831
99999.99560390323
100000.00165040264
99999.99931553511
100000.00020652471
99999.99987140577
100000.00000931355
99999.99996828492
99999.99999415733
99999.99999198545
99999.99999778585
99999.99999840933
99999.99999959551
99999.999999779
99999.99999995995
99999.99999997877
99999.99999999866
99999.99999999847
100006.00019845048
99968.23442419464
100102.0699854557
104729.952291465
127389.47057698692
155868.51484076833
182932.30697844576
99999.12100902219
100000.04595029069
100000.04729156784
99999.96631495806
100000.01693218247
99999.99245968503
100000.00316981752
99999.998670674
100000.000484495
99999.99975337184
100000.00004442388
99999.99993885717
99999.9999911385
99999.99998170092
99999.99999403454
99999.99999526073
99999.9999983969
99999.99999911487
99999.99999974907
99999.9999998882
99999.99999997768
99999.9999999905
99999.99999999932
99999.99999999945
100002.05270878217
99996.00244524224
99967.0200464675
101306.06737199676
111885.32869229701
141454.04363201832
164553.27825911468
179429.27322855094
99999.48308650972
100000.10908698657
99999.9832696476
99999.99944983507
100000.00222973879
99999.99855928567
100000.00070028313
99999.99963644744
100000.00010299434
99999.99990247225
99999.99999212098
99999.99996597705
99999.99998763636
99999.99998861479
99999.99999526015
99999.99999714212
99999.99999893975
99999.99999950839
99999.99999985326
99999.99999994412
99999.99999998802
99999.99999999581
99999.99999999968
99999.99999999984
100000.38968719832
100001.39308143772
99977.67980528851
100266.87932780362
104406.46727604126
122404.20789204577
153953.2175327036
169562.01245485072
176066.98025493603
99999.82382057275
100000.05398731974
99999.9858130631
100000.00319764248
99999.99952128774
99999.99992838645
100000.00006696307
99999.99990075018
99999.99999281342
99999.99995090564
99999.99997926517
99999.99997810925
99999.99998900726
99999.99999260649
99999.99999662154
99999.99999826867
99999.99999933844
99999.99999972904
99999.99999991793
99999.99999997238
99999.99999999384
99999.99999999815
99999.99999999972
99999.99999999996
99999.96927726203
100001.124913047
99993.06656353432
100029.13180077713
101351.64335114032
110251.27495774467
134867.6965858509
163199.14913092193
171878.5815551599
173448.8272638715
99999.96524494013
100000.01693294985
99999.99411532388
100000.00180551514
99999.99949871321
100000.00008784144
99999.99994792827
99999.99995886965
99999.99996798427
99999.99996744342
99999.99997929952
99999.9999846986
99999.99999152325
99999.99999513394
99999.9999977384
99999.99999895814
99999.99999960444
99999.99999985244
99999.99999995573
99999.99999998668
99999.99999999706
99999.99999999927
99999.99999999988
100000.00000000006
99999.93900352977
100000.41295624139
99998.9633516984
99993.59026404964
100350.07199179633
103915.32012374801
119105.15676634361
147093.49922684862
168911.07656837712
172570.58743850712
171685.01044014827
100000.00192686367
100000.00298355195
99999.99838793439
100000.0006313481
99999.99976227786
100000.00003581996
99999.99994354467
99999.99996739207
99999.99996697913
99999.99997495323
99999.9999828326
99999.9999890287
99999.99999390409
99999.99999681555
99999.99999854942
99999.99999938176
99999.99999977155
99999.99999992104
99999.99999997678
99999.99999999348
99999.99999999866
99999.9999999998
99999.99999999997
100000.00000000006
99999.9715607518
100000.08376559075
100000.217718681
99995.0260933686
100071.02726578499
101306.55348977004
108706.79788913834
130207.23373330847
157206.53505377116
171768.8963569535
172449.4006977389
170659.14735708438
100000.00514863095
99999.99964943845
99999.99979018944
100000.00013284608
99999.99990628292
99999.99998955209
99999.99995383364
99999.99996859723
99999.99997149307
99999.9999801067
99999.99998678039
99999.99999218454
99999.99999580331
99999.99999794924
99999.9999990999
99999.99999963977
99999.99999987177
99999.99999995848
99999.99999998834
99999.99999999705
99999.99999999937
99999.99999999987
100000.00000000003
100000.00000000003
99999.9922226527
99999.9958260129
100000.21713687686
99998.3664885597
100008.17378839062
100382.40098332388
103445.93906806187
116162.43856596184
141909.32267931686
164349.29089855106
172755.628752418
172022.01710152047
170176.54987240536
100000.00254881117
99999.9994583397
100000.00006358339
99999.99998593605
99999.99995475315
99999.99996964989
99999.99996162833
99999.99997095385
99999.99997672383
99999.99998445965
99999.99999023721
99999.9999945429
99999.99999720315
99999.99999870641
99999.9999994571
99999.99999979427
99999.99999993
99999.99999997857
99999.99999999425
99999.9999999987
99999.99999999977
99999.99999999999
100000.00000000006
100000.00000000003
99999.9992963984
99999.98812364208
100000.08419557598
99999.7196483769
99998.61748032132
100096.37434554167
101213.77056704018
107416.946228213
125975.47330380722
152409.5656805071
168666.2049407146
172731.1661864898
171559.6732923045
170040.02302384732
100000.00075568353
99999.99974372706
100000.00004549621
99999.99995897914
99999.99996471826
99999.9999647772
99999.99996710394
99999.99997476733
99999.99998156911
99999.99998821047
99999.99999300984
99999.99999628172
99999.99999818676
99999.99999920232
99999.99999968061
99999.99999988511
99999.99999996273
99999.99999998912
99999.99999999716
99999.99999999946
99999.9999999998
99999.99999999997
100000.00000000001
100000.00000000003
100000.00057950999
99999.99430085762
100000.01814336686
100000.02998366761
99998.79613746323
100019.38709432328
100385.69572269585
103004.84590379153
113725.46677805785
136980.62593533756
160526.60538787334
170847.89661046074
172284.96328640144
171181.02118234246
170089.62178644375
100000.00009364272
99999.99991739518
99999.99999974006
99999.99995949838
99999.99996519729
99999.99996611652
99999.99997183119
99999.99997914385
99999.99998579174
99999.99999132405
99999.99999512857
99999.99999752994
99999.99999885343
99999.99999951934
99999.99999981649
99999.9999999372
99999.9999999806
99999.99999999464
99999.9999999988
99999.99999999975
99999.9999999999
99999.99999999997
100000.00000000003
100000.00000000003
100000.00040413367
99999.99842209829
99999.99966195539
100000.04337993798
99999.58552326451
100002.28514885153
100109.77765489796
101104.27485822375
106314.9336927591
122366.38003622038
147577.6597456408
165977.95867594949
171675.952521279
171754.75195037722
170916.97674200658
170224.47751274807
99999.99994774896
99999.9999734236
99999.9999745462
99999.99996253705
99999.99996571692
99999.99996968862
99999.99997641335
99999.9999834158
99999.99998933678
99999.99999379633
99999.99999669052
99999.99999839939
99999.99999929211
99999.99999971685
99999.99999989696
99999.99999996636
99999.99999999002
99999.99999999745
99999.9999999994
99999.99999999988
99999.99999999996
100000.00000000003
100000.00000000003
100000.00000000003
100000.00014768167
99999.99984759798
99999.99774676719
100000.01802376396
99999.91998753617
99999.66625004812
100027.18290696203
100372.35624538484
102610.34222223281
111664.90443374074
132582.58770563826
156422.33637592738
169156.10174821666
171778.42800067595
171299.25151907504
170759.82345556992
170369.4374839879
99999.9999453961
99999.99997953286
99999.99996530615
99999.9999648025
99999.99996798139
99999.99997398451
99999.99998083178
99999.99998723259
99999.99999220877
99999.99999568195
99999.99999780615
99999.99999898743
99999.99999957281
99999.99999983692
99999.99999994341
99999.99999998238
99999.99999999497
99999.99999999873
99999.99999999981
99999.99999999997
100000.00000000003
100000.0
100000.00000000003
100000.00000000007
100000.00002539392
100000.00010080678
99999.99889513015
100000.00417472841
100000.00215221166
99999.68628775496
100005.41350018235
100115.0572612812
100991.85913703189
105384.13192494123
119243.85796225272
143037.65773017646
162886.52623535786
170724.55561367987
171568.74699494397
170972.11171245112
170681.7244711744
170497.89851367002
99999.99995895223
99999.99997384424
99999.999963535
99999.99996715599
99999.99997155025
99999.99997839268
99999.99998489417
99999.99999045148
99999.99999445443
99999.99999707
99999.99999857976
99999.99999937411
99999.99999974793
99999.99999990808
99999.99999996966
99999.999999991
99999.99999999757
99999.99999999945
99999.99999999988
99999.9999999999
99999.99999999996
100000.00000000001
100000.00000000003
100000.00000000003
99999.99998588904
100000.00005833602
99999.99970966106
100000.00005099663
100000.00900294642
99999.8878017392
100000.63721285514
100032.117019313
100350.26173429846
102263.07613700732
109931.31351516559
128625.16252251506
152359.6232701368
167053.5570862953
171313.3632842404
171281.0998485497
170769.29362559205
170656.25056777103
170592.84776468502
99999.99996463595
99999.99996905516
99999.99996486261
99999.99997019068
99999.9999757303
99999.99998258978
99999.99998844117
99999.99999304918
99999.9999961518
99999.99999805947
99999.99999910162
99999.99999962168
99999.99999985426
99999.99999994921
99999.99999998393
99999.99999999545
99999.99999999885
99999.99999999985
99999.99999999993
99999.99999999996
100000.00000000003
100000.00000000001
100000.00000000003
100000.00000000003
99999.9999755556
100000.00000167155
99999.99999097845
99999.99952088026
100000.00417769482
99999.97610409629
99999.90881261909
100007.83799717274
100115.01256755344
100884.12663190422
104598.37681275196
116559.83180322523
138758.297451754
159666.8719704639
169419.57693668638
171391.04852060348
171026.29396097964
170664.57254419598
170659.56938161195
170654.98453894997
99999.99996519578
99999.9999673305
99999.99996763845
99999.99997386761
99999.99997999682
99999.99998637274
99999.99999139721
99999.9999950681
99999.99999739393
99999.99999874429
99999.9999994444
99999.99999977628
99999.99999991767
99999.99999997264
99999.99999999184
99999.9999999978
99999.99999999948
99999.99999999997
100000.00000000003
99999.99999999996
100000.00000000003
100000.00000000003
100000.00000000003
100000.00000000003
99999.99997201259
99999.99997445861
100000.0000327574
99999.99972210739
100000.0011420843
99999.99907379826
99999.91278343387
100001.54160464078
100034.85055549604
100324.10597661344
101961.54891898407
108471.62609717599
125099.17355414698
148338.02566800325
164751.7555096298
170575.11069460906
171253.78330750504
170842.72053287146
170626.01775496796
170675.0315199464
170687.6109179482
99999.9999649696
99999.99996806738
99999.99997122036
99999.99997786901
99999.99998401145
99999.99998962594
99999.99999376308
99999.99999658558
99999.99999827615
99999.9999992057
99999.99999966382
99999.99999987046
99999.99999995451
99999.99999998543
99999.9999999958
99999.99999999897
99999.99999999984
100000.00000000006
99999.99999999999
100000.00000000007
100000.00000000003
100000.00000000003
100000.00000000003
100000.00000000003
99999.99996984302
99999.99996563785
100000.00001339016
99999.99988829884
100000.00015192525
100000.00175034122
99999.96821028231
100000.17717509849
100009.57782383708
100111.64215164314
100784.59167799992
103936.27935884603
114255.07776274729
134776.69089453117
156321.2263282414
167914.80745285438
171017.85191570647
171064.58717564284
170730.9113429217
170625.7145371378
170691.67803034824
170702.33656520132
99999.99996580674
99999.999970402
99999.99997521931
99999.99998185338
99999.99998757798
99999.99999230936
99999.99999558984
99999.99999769144
99999.99999888528
99999.99999950833
99999.9999998008
99999.9999999266
99999.9999999753
99999.9999999924
99999.99999999798
99999.99999999953
100000.0
100000.00000000001
100000.00000000001
100000.00000000003
100000.00000000003
100000.00000000003
100000.00000000003
100000.00000000003
99999.99996878403
99999.99996386828
99999.99999230317
99999.99995165455
99999.9999751562
100000.00085291073
99999.9929830418
99999.97173404926
100002.30632512117
100035.96867378264
100296.72728609135
101701.53640499695
107241.91802820418