# vtk DataFile Version 2.0
JuliaCFD
ASCII
DATASET UNSTRUCTURED_GRID

POINTS 7752 float
0.0 0.0 -0.005
0.02 0.0 -0.005
0.04 0.0 -0.005
0.06 0.0 -0.005
0.08 0.0 -0.005
0.1 0.0 -0.005
0.12 0.0 -0.005
0.14 0.0 -0.005
0.16 0.0 -0.005
0.18 0.0 -0.005
0.2 0.0 -0.005
0.22 0.0 -0.005
0.24 0.0 -0.005
0.26 0.0 -0.005
0.28 0.0 -0.005
0.3 0.0 -0.005
0.32 0.0 -0.005
0.34 0.0 -0.005
0.36 0.0 -0.005
0.38 0.0 -0.005
0.4 0.0 -0.005
0.42 0.0 -0.005
0.44 0.0 -0.005
0.46 0.0 -0.005
0.48 0.0 -0.005
0.5 0.0 -0.005
0.0 0.02 -0.005
0.02 0.02 -0.005
0.04 0.02 -0.005
0.06 0.02 -0.005
0.08 0.02 -0.005
0.1 0.02 -0.005
0.12 0.02 -0.005
0.14 0.02 -0.005
0.16 0.02 -0.005
0.18 0.02 -0.005
0.2 0.02 -0.005
0.22 0.02 -0.005
0.24 0.02 -0.005
0.26 0.02 -0.005
0.28 0.02 -0.005
0.3 0.02 -0.005
0.32 0.02 -0.005
0.34 0.02 -0.005
0.36 0.02 -0.005
0.38 0.02 -0.005
0.4 0.02 -0.005
0.42 0.02 -0.005
0.44 0.02 -0.005
0.46 0.02 -0.005
0.48 0.02 -0.005
0.5 0.02 -0.005
0.0 0.04 -0.005
0.02 0.04 -0.005
0.04 0.04 -0.005
0.06 0.04 -0.005
0.08 0.04 -0.005
0.1 0.04 -0.005
0.12 0.04 -0.005
0.14 0.04 -0.005
0.16 0.04 -0.005
0.18 0.04 -0.005
0.2 0.04 -0.005
0.22 0.04 -0.005
0.24 0.04 -0.005
0.26 0.04 -0.005
0.28 0.04 -0.005
0.3 0.04 -0.005
0.32 0.04 -0.005
0.34 0.04 -0.005
0.36 0.04 -0.005
0.38 0.04 -0.005
0.4 0.04 -0.005
0.42 0.04 -0.005
0.44 0.04 -0.005
0.46 0.04 -0.005
0.48 0.04 -0.005
0.5 0.04 -0.005
0.0 0.06 -0.005
0.02 0.06 -0.005
0.04 0.06 -0.005
0.06 0.06 -0.005
0.08 0.06 -0.005
0.1 0.06 -0.005
0.12 0.06 -0.005
0.14 0.06 -0.005
0.16 0.06 -0.005
0.18 0.06 -0.005
0.2 0.06 -0.005
0.22 0.06 -0.005
0.24 0.06 -0.005
0.26 0.06 -0.005
0.28 0.06 -0.005
0.3 0.06 -0.005
0.32 0.06 -0.005
0.34 0.06 -0.005
0.36 0.06 -0.005
0.38 0.06 -0.005
0.4 0.06 -0.005
0.42 0.06 -0.005
0.44 0.06 -0.005
0.46 0.06 -0.005
0.48 0.06 -0.005
0.5 0.06 -0.005
0.0 0.08 -0.005
0.02 0.08 -0.005
0.04 0.08 -0.005
0.06 0.08 -0.005
0.08 0.08 -0.005
0.1 0.08 -0.005
0.12 0.08 -0.005
0.14 0.08 -0.005
0.16 0.08 -0.005
0.18 0.08 -0.005
0.2 0.08 -0.005
0.22 0.08 -0.005
0.24 0.08 -0.005
0.26 0.08 -0.005
0.28 0.08 -0.005
0.3 0.08 -0.005
0.32 0.08 -0.005
0.34 0.08 -0.005
0.36 0.08 -0.005
0.38 0.08 -0.005
0.4 0.08 -0.005
0.42 0.08 -0.005
0.44 0.08 -0.005
0.46 0.08 -0.005
0.48 0.08 -0.005
0.5 0.08 -0.005
0.0 0.1 -0.005
0.02 0.1 -0.005
0.04 0.1 -0.005
0.06 0.1 -0.005
0.08 0.1 -0.005
0.1 0.1 -0.005
0.12 0.1 -0.005
0.14 0.1 -0.005
0.16 0.1 -0.005
0.18 0.1 -0.005
0.2 0.1 -0.005
0.22 0.1 -0.005
0.24 0.1 -0.005
0.26 0.1 -0.005
0.28 0.1 -0.005
0.3 0.1 -0.005
0.32 0.1 -0.005
0.34 0.1 -0.005
0.36 0.1 -0.005
0.38 0.1 -0.005
0.4 0.1 -0.005
0.42 0.1 -0.005
0.44 0.1 -0.005
0.46 0.1 -0.005
0.48 0.1 -0.005
0.5 0.1 -0.005
0.0 0.12 -0.005
0.02 0.12 -0.005
0.04 0.12 -0.005
0.06 0.12 -0.005
0.08 0.12 -0.005
0.1 0.12 -0.005
0.12 0.12 -0.005
0.14 0.12 -0.005
0.16 0.12 -0.005
0.18 0.12 -0.005
0.2 0.12 -0.005
0.22 0.12 -0.005
0.24 0.12 -0.005
0.26 0.12 -0.005
0.28 0.12 -0.005
0.3 0.12 -0.005
0.32 0.12 -0.005
0.34 0.12 -0.005
0.36 0.12 -0.005
0.38 0.12 -0.005
0.4 0.12 -0.005
0.42 0.12 -0.005
0.44 0.12 -0.005
0.46 0.12 -0.005
0.48 0.12 -0.005
0.5 0.12 -0.005
0.0 0.14 -0.005
0.02 0.14 -0.005
0.04 0.14 -0.005
0.06 0.14 -0.005
0.08 0.14 -0.005
0.1 0.14 -0.005
0.12 0.14 -0.005
0.14 0.14 -0.005
0.16 0.14 -0.005
0.18 0.14 -0.005
0.2 0.14 -0.005
0.22 0.14 -0.005
0.24 0.14 -0.005
0.26 0.14 -0.005
0.28 0.14 -0.005
0.3 0.14 -0.005
0.32 0.14 -0.005
0.34 0.14 -0.005
0.36 0.14 -0.005
0.38 0.14 -0.005
0.4 0.14 -0.005
0.42 0.14 -0.005
0.44 0.14 -0.005
0.46 0.14 -0.005
0.48 0.14 -0.005
0.5 0.14 -0.005
0.0 0.16 -0.005
0.02 0.16 -0.005
0.04 0.16 -0.005
0.06 0.16 -0.005
0.08 0.16 -0.005
0.1 0.16 -0.005
0.12 0.16 -0.005
0.14 0.16 -0.005
0.16 0.16 -0.005
0.18 0.16 -0.005
0.2 0.16 -0.005
0.22 0.16 -0.005
0.24 0.16 -0.005
0.26 0.16 -0.005
0.28 0.16 -0.005
0.3 0.16 -0.005
0.32 0.16 -0.005
0.34 0.16 -0.005
0.36 0.16 -0.005
0.38 0.16 -0.005
0.4 0.16 -0.005
0.42 0.16 -0.005
0.44 0.16 -0.005
0.46 0.16 -0.005
0.48 0.16 -0.005
0.5 0.16 -0.005
0.0 0.18 -0.005
0.02 0.18 -0.005
0.04 0.18 -0.005
0.06 0.18 -0.005
0.08 0.18 -0.005
0.1 0.18 -0.005
0.12 0.18 -0.005
0.14 0.18 -0.005
0.16 0.18 -0.005
0.18 0.18 -0.005
0.2 0.18 -0.005
0.22 0.18 -0.005
0.24 0.18 -0.005
0.26 0.18 -0.005
0.28 0.18 -0.005
0.3 0.18 -0.005
0.32 0.18 -0.005
0.34 0.18 -0.005
0.36 0.18 -0.005
0.38 0.18 -0.005
0.4 0.18 -0.005
0.42 0.18 -0.005
0.44 0.18 -0.005
0.46 0.18 -0.005
0.48 0.18 -0.005
0.5 0.18 -0.005
0.0 0.2 -0.005
0.02 0.2 -0.005
0.04 0.2 -0.005
0.06 0.2 -0.005
0.08 0.2 -0.005
0.1 0.2 -0.005
0.12 0.2 -0.005
0.14 0.2 -0.005
0.16 0.2 -0.005
0.18 0.2 -0.005
0.2 0.2 -0.005
0.22 0.2 -0.005
0.24 0.2 -0.005
0.26 0.2 -0.005
0.28 0.2 -0.005
0.3 0.2 -0.005
0.32 0.2 -0.005
0.34 0.2 -0.005
0.36 0.2 -0.005
0.38 0.2 -0.005
0.4 0.2 -0.005
0.42 0.2 -0.005
0.44 0.2 -0.005
0.46 0.2 -0.005
0.48 0.2 -0.005
0.5 0.2 -0.005
0.0 0.22 -0.005
0.02 0.22 -0.005
0.04 0.22 -0.005
0.06 0.22 -0.005
0.08 0.22 -0.005
0.1 0.22 -0.005
0.12 0.22 -0.005
0.14 0.22 -0.005
0.16 0.22 -0.005
0.18 0.22 -0.005
0.2 0.22 -0.005
0.22 0.22 -0.005
0.24 0.22 -0.005
0.26 0.22 -0.005
0.28 0.22 -0.005
0.3 0.22 -0.005
0.32 0.22 -0.005
0.34 0.22 -0.005
0.36 0.22 -0.005
0.38 0.22 -0.005
0.4 0.22 -0.005
0.42 0.22 -0.005
0.44 0.22 -0.005
0.46 0.22 -0.005
0.48 0.22 -0.005
0.5 0.22 -0.005
0.0 0.24 -0.005
0.02 0.24 -0.005
0.04 0.24 -0.005
0.06 0.24 -0.005
0.08 0.24 -0.005
0.1 0.24 -0.005
0.12 0.24 -0.005
0.14 0.24 -0.005
0.16 0.24 -0.005
0.18 0.24 -0.005
0.2 0.24 -0.005
0.22 0.24 -0.005
0.24 0.24 -0.005
0.26 0.24 -0.005
0.28 0.24 -0.005
0.3 0.24 -0.005
0.32 0.24 -0.005
0.34 0.24 -0.005
0.36 0.24 -0.005
0.38 0.24 -0.005
0.4 0.24 -0.005
0.42 0.24 -0.005
0.44 0.24 -0.005
0.46 0.24 -0.005
0.48 0.24 -0.005
0.5 0.24 -0.005
0.0 0.26 -0.005
0.02 0.26 -0.005
0.04 0.26 -0.005
0.06 0.26 -0.005
0.08 0.26 -0.005
0.1 0.26 -0.005
0.12 0.26 -0.005
0.14 0.26 -0.005
0.16 0.26 -0.005
0.18 0.26 -0.005
0.2 0.26 -0.005
0.22 0.26 -0.005
0.24 0.26 -0.005
0.26 0.26 -0.005
0.28 0.26 -0.005
0.3 0.26 -0.005
0.32 0.26 -0.005
0.34 0.26 -0.005
0.36 0.26 -0.005
0.38 0.26 -0.005
0.4 0.26 -0.005
0.42 0.26 -0.005
0.44 0.26 -0.005
0.46 0.26 -0.005
0.48 0.26 -0.005
0.5 0.26 -0.005
0.0 0.28 -0.005
0.02 0.28 -0.005
0.04 0.28 -0.005
0.06 0.28 -0.005
0.08 0.28 -0.005
0.1 0.28 -0.005
0.12 0.28 -0.005
0.14 0.28 -0.005
0.16 0.28 -0.005
0.18 0.28 -0.005
0.2 0.28 -0.005
0.22 0.28 -0.005
0.24 0.28 -0.005
0.26 0.28 -0.005
0.28 0.28 -0.005
0.3 0.28 -0.005
0.32 0.28 -0.005
0.34 0.28 -0.005
0.36 0.28 -0.005
0.38 0.28 -0.005
0.4 0.28 -0.005
0.42 0.28 -0.005
0.44 0.28 -0.005
0.46 0.28 -0.005
0.48 0.28 -0.005
0.5 0.28 -0.005
0.0 0.3 -0.005
0.02 0.3 -0.005
0.04 0.3 -0.005
0.06 0.3 -0.005
0.08 0.3 -0.005
0.1 0.3 -0.005
0.12 0.3 -0.005
0.14 0.3 -0.005
0.16 0.3 -0.005
0.18 0.3 -0.005
0.2 0.3 -0.005
0.22 0.3 -0.005
0.24 0.3 -0.005
0.26 0.3 -0.005
0.28 0.3 -0.005
0.3 0.3 -0.005
0.32 0.3 -0.005
0.34 0.3 -0.005
0.36 0.3 -0.005
0.38 0.3 -0.005
0.4 0.3 -0.005
0.42 0.3 -0.005
0.44 0.3 -0.005
0.46 0.3 -0.005
0.48 0.3 -0.005
0.5 0.3 -0.005
0.0 0.32 -0.005
0.02 0.32 -0.005
0.04 0.32 -0.005
0.06 0.32 -0.005
0.08 0.32 -0.005
0.1 0.32 -0.005
0.12 0.32 -0.005
0.14 0.32 -0.005
0.16 0.32 -0.005
0.18 0.32 -0.005
0.2 0.32 -0.005
0.22 0.32 -0.005
0.24 0.32 -0.005
0.26 0.32 -0.005
0.28 0.32 -0.005
0.3 0.32 -0.005
0.32 0.32 -0.005
0.34 0.32 -0.005
0.36 0.32 -0.005
0.38 0.32 -0.005
0.4 0.32 -0.005
0.42 0.32 -0.005
0.44 0.32 -0.005
0.46 0.32 -0.005
0.48 0.32 -0.005
0.5 0.32 -0.005
0.0 0.34 -0.005
0.02 0.34 -0.005
0.04 0.34 -0.005
0.06 0.34 -0.005
0.08 0.34 -0.005
0.1 0.34 -0.005
0.12 0.34 -0.005
0.14 0.34 -0.005
0.16 0.34 -0.005
0.18 0.34 -0.005
0.2 0.34 -0.005
0.22 0.34 -0.005
0.24 0.34 -0.005
0.26 0.34 -0.005
0.28 0.34 -0.005
0.3 0.34 -0.005
0.32 0.34 -0.005
0.34 0.34 -0.005
0.36 0.34 -0.005
0.38 0.34 -0.005
0.4 0.34 -0.005
0.42 0.34 -0.005
0.44 0.34 -0.005
0.46 0.34 -0.005
0.48 0.34 -0.005
0.5 0.34 -0.005
0.0 0.36 -0.005
0.02 0.36 -0.005
0.04 0.36 -0.005
0.06 0.36 -0.005
0.08 0.36 -0.005
0.1 0.36 -0.005
0.12 0.36 -0.005
0.14 0.36 -0.005
0.16 0.36 -0.005
0.18 0.36 -0.005
0.2 0.36 -0.005
0.22 0.36 -0.005
0.24 0.36 -0.005
0.26 0.36 -0.005
0.28 0.36 -0.005
0.3 0.36 -0.005
0.32 0.36 -0.005
0.34 0.36 -0.005
0.36 0.36 -0.005
0.38 0.36 -0.005
0.4 0.36 -0.005
0.42 0.36 -0.005
0.44 0.36 -0.005
0.46 0.36 -0.005
0.48 0.36 -0.005
0.5 0.36 -0.005
0.0 0.38 -0.005
0.02 0.38 -0.005
0.04 0.38 -0.005
0.06 0.38 -0.005
0.08 0.38 -0.005
0.1 0.38 -0.005
0.12 0.38 -0.005
0.14 0.38 -0.005
0.16 0.38 -0.005
0.18 0.38 -0.005
0.2 0.38 -0.005
0.22 0.38 -0.005
0.24 0.38 -0.005
0.26 0.38 -0.005
0.28 0.38 -0.005
0.3 0.38 -0.005
0.32 0.38 -0.005
0.34 0.38 -0.005
0.36 0.38 -0.005
0.38 0.38 -0.005
0.4 0.38 -0.005
0.42 0.38 -0.005
0.44 0.38 -0.005
0.46 0.38 -0.005
0.48 0.38 -0.005
0.5 0.38 -0.005
0.0 0.4 -0.005
0.02 0.4 -0.005
0.04 0.4 -0.005
0.06 0.4 -0.005
0.08 0.4 -0.005
0.1 0.4 -0.005
0.12 0.4 -0.005
0.14 0.4 -0.005
0.16 0.4 -0.005
0.18 0.4 -0.005
0.2 0.4 -0.005
0.22 0.4 -0.005
0.24 0.4 -0.005
0.26 0.4 -0.005
0.28 0.4 -0.005
0.3 0.4 -0.005
0.32 0.4 -0.005
0.34 0.4 -0.005
0.36 0.4 -0.005
0.38 0.4 -0.005
0.4 0.4 -0.005
0.42 0.4 -0.005
0.44 0.4 -0.005
0.46 0.4 -0.005
0.48 0.4 -0.005
0.5 0.4 -0.005
0.0 0.42 -0.005
0.02 0.42 -0.005
0.04 0.42 -0.005
0.06 0.42 -0.005
0.08 0.42 -0.005
0.1 0.42 -0.005
0.12 0.42 -0.005
0.14 0.42 -0.005
0.16 0.42 -0.005
0.18 0.42 -0.005
0.2 0.42 -0.005
0.22 0.42 -0.005
0.24 0.42 -0.005
0.26 0.42 -0.005
0.28 0.42 -0.005
0.3 0.42 -0.005
0.32 0.42 -0.005
0.34 0.42 -0.005
0.36 0.42 -0.005
0.38 0.42 -0.005
0.4 0.42 -0.005
0.42 0.42 -0.005
0.44 0.42 -0.005
0.46 0.42 -0.005
0.48 0.42 -0.005
0.5 0.42 -0.005
0.0 0.44 -0.005
0.02 0.44 -0.005
0.04 0.44 -0.005
0.06 0.44 -0.005
0.08 0.44 -0.005
0.1 0.44 -0.005
0.12 0.44 -0.005
0.14 0.44 -0.005
0.16 0.44 -0.005
0.18 0.44 -0.005
0.2 0.44 -0.005
0.22 0.44 -0.005
0.24 0.44 -0.005
0.26 0.44 -0.005
0.28 0.44 -0.005
0.3 0.44 -0.005
0.32 0.44 -0.005
0.34 0.44 -0.005
0.36 0.44 -0.005
0.38 0.44 -0.005
0.4 0.44 -0.005
0.42 0.44 -0.005
0.44 0.44 -0.005
0.46 0.44 -0.005
0.48 0.44 -0.005
0.5 0.44 -0.005
[...]
CELL_DATA 3750
SCALARS P float 1
LOOKUP_TABLE default
99999.99633274192
100000.00635933559
99999.99636858939
99999.98973421617
100000.00625592741
99999.99665134047
100000.01735534414
99999.98985742986
100000.00572154757
99999.99702177245
99999.97146121359
100000.01711285707
99999.99072528555
100000.00501646908
99999.99745618363
100000.04774309594
99999.97179836604
100000.01556739524
99999.99186284756
100000.00420021708
99999.99791088533
99999.92087795095
100000.04720836485
99999.97441986925
100000.01354346648
99999.99317922026
100000.00336302503
99999.99834911602
100000.13189475218
99999.92157868376
100000.04262507692
99999.97783869081
100000.01121776593
99999.99452674476
100000.00257770836
99999.99874335396
99999.78076992648
100000.13109922614
99999.92950556011
100000.03666595295
99999.98174944893
100000.00886222652
99999.99578891127
100000.00189392884
99999.99907751096
100000.36505204564
99999.78114859012
100000.11723465995
99999.93976330783
100000.02989183847
99999.9856763983
100000.00668677058
99999.99688746234
100000.00133569566
99999.99934612802
99999.3926912306
100000.36658607544
99999.80544097147
100000.09938729362
99999.95134570079
100000.02315870699
99999.98926492075
100000.00482621197
99999.99778554209
100000.00090536749
99999.99955193854
100001.0107365543
99999.38521817801
100000.32369474498
99999.83648879085
100000.07939024565
99999.96272445747
100000.01708436514
99999.9922984914
100000.00333696468
99999.99848045663
100000.00059049504
99999.99970282789
99998.31843490695
100001.03407791512
99999.46145962362
100000.26936922698
99999.87095483085
100000.05999093063
99999.97284299822
100000.01202648049
99999.99469819598
100000.00221312884
99999.99899239927
100000.0003709377
99999.99980901933
100002.79815327685
99998.25613989355
100000.89736300193
99999.55689022681
100000.20972223782
99999.90390163336
100000.04300245972
99999.98113193116
100000.0080941996
99999.99648917136
100000.00140928577
99999.99935316041
100000.00022459486
99999.99988094934
99995.34181572126
100002.95067401616
99998.50360653333
100000.72878588985
99999.66025676315
100000.15363055232
99999.93224786822
100000.02932469467
99999.98746402735
100000.00521680749
99999.99775824373
100000.000862164
99999.99959728024
100000.00013113423
99999.9999279477
100007.76642133814
99994.99054681607
100002.49824168923
99998.80311923749
100000.54920608959
99999.7556412226
100000.10629076419
99999.95462259778
100000.01907214892
99999.99201395658
100000.00322359132
99999.99861637576
100000.00050678947
99999.99975642406
100000.00007384378
99999.99995762476
99987.00928127521
100008.53368837447
99995.82571108242
100001.96268939697
99999.11564612681
100000.3870090726
99999.83440023942
100000.06970649092
99999.9710390585
100000.01185477679
99999.99510915705
100000.0019109167
99999.99917247609
100000.00028607591
99999.99985665495
100000.00004009494
99999.999975764
100021.87052374281
99985.4207589548
100006.97924228053
99996.78968036475
100001.41799419615
99999.39106527025
100000.25629975804
99999.89382746878
100000.0434665277
99999.98233690082
100000.00705308911
99999.99711285211
100000.00108654524
99999.99951915446
100000.00015485896
99999.99991779425
100000.00002097568
99999.99998651097
99962.75869372764
100024.94589955769
99988.32910167603
100005.2327014124
99997.73968661361
100000.95124346447
99999.60700259564
100000.16021956987
99999.93537500655
100000.02583628487
99999.98967851506
100000.0040199778
99999.99835248663
100000.00059189211
99999.99972779289
100000.00008016959
99999.99995399368
100000.00001055788
99999.9999926896
100064.67348298697
99957.3401165679
100019.50129364361
99991.51303277694
100003.57645389081
99998.52811887355
100000.59641265817
99999.76114639633
100000.09488220052
99999.96254533136
100000.01466593653
99999.99420623273
100000.0021947789
99999.99908823379
100000.00030805595
99999.99984942077
100000.00003950157
99999.99997483971
100000.00000510071
99999.99999614041
99884.06085778354
100072.59653117054
99967.46465686367
100013.66759434903
99994.39559617024
100002.25107462557
99999.10695817583
100000.35123577104
99999.86276607167
100000.05337913503
99999.97927795516
100000.00795926272
99999.99686714335
100000.00114618547
99999.99950869707
100000.0001523689
99999.99991833938
100000.00001836871
99999.99998653676
100000.00000235604
99999.99999801413
100219.56271753526
99877.47699972797
100054.08229030883
99978.19548433242
100008.6701869249
99996.60857330218
100001.31566349737
99999.49254474613
100000.19505019748
99999.92523973313
100000.02858632852
99999.98903050285
100000.00413000783
99999.99836254858
100000.0005704741
99999.99974095682
100000.00007090883
99999.9999564343
100000.00000793612
99999.99999294266
100000.00000103391
99999.99999900376
99538.62707612314
100203.72885356666
99910.38392089048
100034.31510536718
99986.81040314962
100005.01100763137
99998.10181514795
100000.7177228448
99999.72887926456
100000.10242617448
99999.96129568909
100000.0145899814
99999.99443052291
100000.00204591246
99999.99916885929
100000.00026856373
99999.9998655245
100000.00003044213
99999.99997705393
100000.00000308399
99999.999996372
100000.0000004264
99999.99999951267
101183.81670607858
99659.01203516546
100147.71172533979
99946.89498324855
100019.60153886021
99992.7836116688
100002.66584140174
99999.01249037168
100000.3668371791
99999.86343992616
100000.0509550921
99999.98092297387
100000.00709707472
99999.99727949896
100000.00096343667
99999.9995875032
100000.00011774836
99999.99993074907
100000.00001153302
99999.99998802718
100000.00000099132
99999.99999816921
100000.0000001619
99999.99999976759
95614.72923981525
100604.33047187008
99754.87157622697
100080.15819444273
99971.78180940424
100010.02930508918
99996.38875707182
100001.31112861396
99999.52087107836
100000.1760560651
99999.93504994753
100000.02403320471
99999.99103331471
100000.0032844744
99999.99871540235
100000.00042711382
99999.99979780335
100000.0000464464
99999.99996432288
100000.00000337555
99999.99999379217
100000.00000018181
99999.99999909241
100000.0000000542
99999.99999989188
98638.74438440542
128625.36312092817
100408.95906202121
99882.92638821894
100038.65888645798
99986.7569652742
100004.65007869981
99998.34201026983
100000.5976079838
99999.78289987554
100000.07939980534
99999.9708113489
100000.01074045537
99999.99597241303
100000.00143865753
99999.99940870266
100000.00017439047
99999.99990071998
100000.0000149787
99999.9999814585
100000.00000026032
99999.99999679418
99999.99999992423
99999.99999955775
100000.00000001406
99999.99999995087
99354.45074133005
103341.69641109147
156262.57932422272
100157.64587126762
99951.4126881879
100016.09010537765
99994.4532938782
100001.95450054105
99999.30135151933
100000.25235355852
99999.90818409428
100000.03361947382
99999.98760672365
100000.00453494598
99999.99826398949
100000.00058887954
99999.99973069197
100000.00006200961
99999.99995030714
100000.00000240751
99999.99999021589
99999.99999932894
99999.99999834897
99999.9999998791
99999.999999788
100000.000000001
99999.9999999783
99853.2774465922
100321.01124418182
113952.95731818354
174650.40695011735
100049.10456871997
99983.38557457211
100005.79628865796
99997.93968246177
100000.74142659521
99999.73088232032
100000.09838863376
99999.96385936397
100000.0133225555
99999.99502949197
100000.00179537201
99999.99927499022
100000.00021812209
99999.99987559303
100000.00001570526
99999.99997420041
99999.99999822237
99999.99999474171
99999.9999992375
99999.99999915183
99999.99999990084
99999.9999999
99999.99999999788
99999.99999999067
99988.34248384653
99806.83986323707
105123.7307717241
128387.25068981858
183458.70446054987
100010.46066506108
99995.50494662949
100001.75499482478
99999.33398615509
100000.25043056146
99999.90619878331
100000.03513822364
99999.98683540935
100000.00490535793
99999.99811367042
100000.00065352337
99999.99970004265
100000.00006626896
99999.99993968295
99999.99999882611
99999.99998595378
99999.99999742459
99999.99999712547
99999.99999940167
99999.99999956579
99999.99999993351
99999.99999995354
99999.99999999812
99999.99999999613
100009.29699611035
99889.20868485238
101016.50137385968
114466.18215119146
143335.90655368747
185120.2706133295
100000.45393773436
99999.21894969877
100000.40851499794
99999.8217177749
100000.07299667277
99999.97104691857
100000.01131201845
99999.99560390315
100000.00165040272
99999.99931553513
100000.00020652472
99999.99987140579
100000.00000931352
99999.99996828496
99999.99999415739
99999.99999198537
99999.99999778588
99999.99999840923
99999.9999995955
99999.99999977887
99999.99999995998
99999.99999997883
99999.99999999869
99999.99999999849
100006.00019845052
99968.2344241943
100102.06998545598
104729.95229146445
127389.47057698808
155868.51484076673
182932.30697844844
99999.12100902207
100000.04595029069
100000.04729156783
99999.96631495807
100000.0169321827
99999.99245968516
100000.00316981759
99999.99867067391
100000.00048449503
99999.99975337194
100000.00004442382
99999.99993885713
99999.99999113854
99999.99998170107
99999.99999403466
99999.99999526076
99999.99999839698
99999.99999911485
99999.99999974896
99999.99999988824
99999.99999997758
99999.99999999053
99999.99999999921
99999.99999999945
100002.05270878224
99996.00244524192
99967.02004646786
101306.06737199618
111885.32869229808
141454.04363201678
164553.2782591173
179429.27322854643
99999.4830865096
100000.10908698665
99999.98326964767
99999.99944983512
100000.0022297389
99999.99855928564
100000.00070028307
99999.99963644736
100000.0001029943
99999.99990247218
99999.99999212097
99999.99996597708
99999.99998763646
99999.99998861481
99999.99999526008
99999.99999714208
99999.9999989397
99999.99999950828
99999.9999998532
99999.9999999441
99999.99999998802
99999.99999999582
99999.99999999962
99999.9999999999
100000.38968719835
100001.39308143755
99977.67980528872
100266.87932780299
104406.4672760422
122404.20789204426
153953.217532706
169562.01245484655
176066.98025494267
99999.82382057255
100000.05398731968
99999.98581306309
100000.00319764258
99999.99952128784
99999.99992838631
100000.00006696298
99999.9999007502
99999.99999281348
99999.99995090564
99999.9999792651
99999.99997810916
99999.99998900732
99999.99999260658
99999.99999662155
99999.99999826867
99999.99999933841
99999.9999997291
99999.99999991796
99999.9999999724
99999.99999999399
99999.99999999817
99999.99999999981
99999.99999999996
99999.96927726215
100001.12491304669
99993.06656353454
100029.13180077657
101351.6433511412
110251.27495774331
134867.69658585344
163199.1491309177
171878.58155516608
173448.82726385962
99999.96524493983
100000.01693294996
99999.99411532395
100000.00180551523
99999.99949871318
100000.00008784143
99999.99994792824
99999.99995886971
99999.99996798433
99999.99996744344
99999.9999792997
99999.99998469862
99999.99999152317
99999.99999513399
99999.99999773828
99999.99999895816
99999.99999960448
99999.99999985255
99999.9999999559
99999.99999998658
99999.99999999712
99999.99999999919
99999.99999999983
100000.00000000001
99999.93900352987
100000.41295624113
99998.96335169877
99993.59026404902
100350.07199179713
103915.32012374666
119105.15676634578
147093.4992268446
168911.07656838297
172570.5874384956
171685.01044016395
100000.00192686346
100000.00298355203
99999.99838793451
100000.00063134813
99999.99976227772
100000.00003581992
99999.99994354464
99999.99996739195
99999.99996697906
99999.99997495316
99999.9999828326
99999.99998902874
99999.99999390413
99999.99999681565
99999.99999854925
99999.99999938175
99999.99999977153
99999.99999992092
99999.9999999769
99999.99999999351
99999.99999999862
99999.9999999997
100000.00000000004
100000.00000000006
99999.97156075187
100000.08376559049
100000.21771868129
99995.02609336801
100071.02726578579
101306.55348976863
108706.79788914048
130207.23373330465
157206.5350537767
171768.89635694242
172449.400697753
170659.1473570483
100000.00514863076
99999.99964943848
99999.99979018944
100000.00013284611
99999.99990628294
99999.99998955196
99999.99995383367
99999.99996859719
99999.99997149312
99999.9999801067
99999.99998678056
99999.99999218452
99999.99999580329
99999.99999794929
99999.9999991
99999.99999963962
99999.99999987181
99999.99999995848
99999.99999998842
99999.99999999693
99999.99999999948
99999.99999999993
100000.00000000001
100000.00000000003
99999.99222265276
99999.99582601253
100000.21713687731
99998.36648855903
100008.17378839158
100382.40098332259
103445.93906806414
116162.43856595825
141909.32267932247
164349.29089854035
172755.6287524311
172022.01710148517
170176.54987242373
100000.00254881107
99999.99945833969
100000.00006358355
99999.999985936
99999.99995475313
99999.99996965002
99999.99996162833
99999.99997095377
99999.99997672373
99999.99998445943
99999.99999023727
99999.99999454296
99999.99999720302
99999.9999987065
99999.99999945695
99999.99999979437
99999.99999993
99999.99999997858
99999.9999999943
99999.99999999862
99999.99999999975
99999.9999999999
100000.00000000004
100000.00000000003
99999.9992963986
99999.98812364186
100000.08419557632
99999.71964837627
99998.61748032221
100096.3743455404
101213.77056704235
107416.94622820946
125975.473303813
152409.56568049671
168666.2049407272
172731.1661864545
171559.6732923146
170040.0230236718
100000.00075568348
99999.99974372721
100000.00004549607
99999.99995897916
99999.9999647182
99999.9999647772
99999.99996710394
99999.99997476733
99999.9999815691
99999.99998821047
99999.99999300975
99999.9999962818
99999.99999818667
99999.99999920235
99999.99999968063
99999.99999988492
99999.99999996266
99999.99999998916
99999.9999999973
99999.99999999939
99999.99999999997
99999.99999999996
100000.00000000001
100000.00000000003
100000.00057951022
99999.99430085745
100000.01814336717
100000.02998366699
99998.79613746404
100019.38709432197
100385.69572269802
103004.84590378808
113725.46677806354
136980.6259353276
160526.60538788576
170847.8966104255
172284.9632864064
171181.0211821545
170089.62178617634
100000.00009364256
99999.99991739515
99999.99999974004
99999.99995949844
99999.99996519725
99999.99996611636
99999.99997183109
99999.99997914382
99999.99998579174
99999.999991324
99999.99999512857
99999.99999753003
99999.99999885347
99999.9999995193
99999.99999981663
99999.99999993715
99999.99999998054
99999.99999999454
99999.99999999872
99999.9999999997
99999.99999999993
99999.99999999997
100000.00000000003
100000.00000000003
100000.00040413385
99999.99842209808
99999.99966195575
100000.0433799374
99999.58552326552
100002.28514885031
100109.77765490007
101104.2748582202
106314.93369276468
122366.3800362108
147577.65974565354
165977.95867591488
171675.95252127977
171754.75195017725
170916.97674166548
170224.47751118828
99999.99994774902
99999.9999734237
99999.99997454605
99999.99996253703
99999.99996571691
99999.99996968855
99999.99997641332
99999.99998341553
99999.99998933665
99999.99999379633
99999.99999669052
99999.99999839942
99999.99999929208
99999.99999971685
99999.99999989694
99999.99999996639
99999.99999999018
99999.99999999757
99999.99999999949
99999.99999999987
100000.00000000001
100000.00000000003
100000.00000000003
100000.00000000003
100000.00014768187
99999.99984759784
99999.99774676752
100000.01802376333
99999.91998753705
99999.66625004665
100027.18290696417
100372.35624538144
102610.34222223837
111664.90443373144
132582.58770565156
156422.33637589464
169156.10174821573
171778.42800046608
171299.2515186796
170759.82345379997
170369.43747959207
99999.99994539605
99999.99997953289
99999.99996530611
99999.99996480251
99999.99996798144
99999.99997398442
99999.99998083172
99999.99998723253
99999.99999220874
99999.999995682
99999.99999780618
99999.99999898736
99999.99999957265
99999.99999983692
99999.99999994342
99999.99999998236
99999.99999999501
99999.99999999879
99999.99999999971
99999.9999999999
100000.00000000003
100000.0
100000.00000000003
100000.00000000007
100000.00002539414
100000.00010080657
99999.9988951305
100000.00417472782
100000.0021522125
99999.68628775343
100005.41350018454
100115.05726127772
100991.85913703749
105384.13192493211
119243.85796226663
143037.65773014686
162886.52623535917
170724.55561346546
171568.7469945002
170972.1117105132
170681.72446601355
170497.89849809132
99999.99995895215
99999.99997384427
99999.99996353491
99999.999967156
99999.9999715503
99999.99997839266
99999.99998489415
99999.99999045157
99999.99999445456
99999.99999707003
99999.99999857983
99999.99999937418
99999.99999974798
99999.9999999081
99999.9999999696
99999.99999999089
99999.9999999975
99999.99999999943
99999.99999999985
99999.9999999999
99999.99999999996
99999.99999999999
100000.00000000003
100000.00000000003
99999.99998588931
100000.00005833579
99999.99970966135
100000.00005099602
100000.0090029473
99999.88780173767
100000.63721285759
100032.11701930924
100350.2617343042
102263.07613699826
109931.31351517992
128625.16252248861
152359.62327014562
167053.5570860858
171313.36328376463
171281.09984645835
170769.2936198584
170656.25054990052
170592.84771934786
99999.99996463601
99999.99996905531
99999.99996486257
99999.99997019078
99999.99997573033
99999.9999825898
99999.99998844104
99999.99999304923
99999.99999615182
99999.99999805947
99999.99999910181
99999.99999962174
99999.99999985441
99999.99999994924
99999.99999998395
99999.99999999552
99999.99999999895
99999.99999999971
99999.99999999988
99999.99999999997
100000.00000000001
100000.00000000001
100000.00000000003
100000.00000000003
99999.99997555577
100000.00000167127
99999.99999097877
99999.99952087947
100000.00417769565
99999.97610409476
99999.90881262145
100007.83799716902
100115.0125675593
100884.12663189512
104598.3768127663
116559.83180320088
138758.2974517735
159666.87197027414
169419.5769362065
171391.04851840012
171026.29395471592
170664.57252459964
170659.5693293073
170654.9844047267
99999.99996519578
99999.99996733046
99999.99996763846
99999.99997386771
99999.99997999678
99999.99998637279
99999.9999913971
99999.99999506814
99999.99999739406
99999.99999874449
99999.99999944445
99999.99999977622
99999.9999999177
99999.99999997269
99999.99999999179
99999.99999999777
99999.99999999952
99999.99999999997
100000.0000000001
99999.99999999996
100000.00000000003
100000.00000000003
100000.00000000003
100000.00000000003
99999.99997201277
99999.99997445835
100000.00003275789
99999.99972210673
100000.00114208521
99999.99907379667
99999.91278343635
100001.54160463704
100034.85055550186
100324.10597660422
101961.54891899863
108471.62609715237
125099.17355417607
148338.02566784917
164751.75550918732
170575.1106923629
171253.78330083136
170842.72051166248
170626.01769755018
170675.03136636497
170687.61055492493
99999.99996496942
99999.99996806763
99999.99997122026
99999.99997786908
99999.99998401145
99999.9999896261
99999.99999376312
99999.99999658568
99999.99999827618
99999.99999920571
99999.99999966387
99999.99999987052
99999.99999995444
99999.9999999855
99999.99999999581
99999.99999999898
99999.99999999991
100000.00000000009
100000.00000000009
100000.00000000007
100000.00000000003
100000.00000000003
100000.00000000003
100000.00000000003
99999.99996984318
99999.99996563756
100000.00001339059
99999.99988829812
100000.00015192632
100000.00175033968
99999.9682102849
100000.17717509466
100009.57782384292
100111.64215163385
100784.59167801471
103936.2793588226
114255.07776278183
134776.69089441886
156321.22632789268
167914.80745066772
171017.85190880785
171064.58715314147
170730.9112806944
170625.7143694577
170691.6776152531
170702.33560966546
99999.99996580655
99999.99997040216
99999.99997521922
99999.9999818534
99999.9999875779
99999.9999923094
99999.99999558984
99999.99999769148
99999.99999888532
99999.99999950842
99999.99999980086
99999.99999992661
99999.99999997533
99999.99999999248
99999.99999999793
99999.99999999943
99999.99999999993
100000.0000000001
100000.00000000001
100000.00000000003
100000.00000000003
100000.00000000003
100000.00000000003
100000.00000000003
99999.99996878422
99999.9999638681
99999.99999230364
99999.99995165382
99999.99997515729
100000.00085290911
99999.9929830443
99999.97173404528
100002.3063251273
100035.96867377307
100296.72728610641