# vtk DataFile Version 2.0
JuliaCFD
ASCII
DATASET UNSTRUCTURED_GRID

POINTS 7752 float
0.0 0.0 -0.005
0.02 0.0 -0.005
0.04 0.0 -0.005
0.06 0.0 -0.005
0.08 0.0 -0.005
0.1 0.0 -0.005
0.12 0.0 -0.005
0.14 0.0 -0.005
0.16 0.0 -0.005
0.18 0.0 -0.005
0.2 0.0 -0.005
0.22 0.0 -0.005
0.24 0.0 -0.005
0.26 0.0 -0.005
0.28 0.0 -0.005
0.3 0.0 -0.005
0.32 0.0 -0.005
0.34 0.0 -0.005
0.36 0.0 -0.005
0.38 0.0 -0.005
0.4 0.0 -0.005
0.42 0.0 -0.005
0.44 0.0 -0.005
0.46 0.0 -0.005
0.48 0.0 -0.005
0.5 0.0 -0.005
0.0 0.02 -0.005
0.02 0.02 -0.005
0.04 0.02 -0.005
0.06 0.02 -0.005
0.08 0.02 -0.005
0.1 0.02 -0.005
0.12 0.02 -0.005
0.14 0.02 -0.005
0.16 0.02 -0.005
0.18 0.02 -0.005
0.2 0.02 -0.005
0.22 0.02 -0.005
0.24 0.02 -0.005
0.26 0.02 -0.005
0.28 0.02 -0.005
0.3 0.02 -0.005
0.32 0.02 -0.005
0.34 0.02 -0.005
0.36 0.02 -0.005
0.38 0.02 -0.005
0.4 0.02 -0.005
0.42 0.02 -0.005
0.44 0.02 -0.005
0.46 0.02 -0.005
0.48 0.02 -0.005
0.5 0.02 -0.005
0.0 0.04 -0.005
0.02 0.04 -0.005
0.04 0.04 -0.005
0.06 0.04 -0.005
0.08 0.04 -0.005
0.1 0.04 -0.005
0.12 0.04 -0.005
0.14 0.04 -0.005
0.16 0.04 -0.005
0.18 0.04 -0.005
0.2 0.04 -0.005
0.22 0.04 -0.005
0.24 0.04 -0.005
0.26 0.04 -0.005
0.28 0.04 -0.005
0.3 0.04 -0.005
0.32 0.04 -0.005
0.34 0.04 -0.005
0.36 0.04 -0.005
0.38 0.04 -0.005
0.4 0.04 -0.005
0.42 0.04 -0.005
0.44 0.04 -0.005
0.46 0.04 -0.005
0.48 0.04 -0.005
0.5 0.04 -0.005
0.0 0.06 -0.005
0.02 0.06 -0.005
0.04 0.06 -0.005
0.06 0.06 -0.005
0.08 0.06 -0.005
0.1 0.06 -0.005
0.12 0.06 -0.005
0.14 0.06 -0.005
0.16 0.06 -0.005
0.18 0.06 -0.005
0.2 0.06 -0.005
0.22 0.06 -0.005
0.24 0.06 -0.005
0.26 0.06 -0.005
0.28 0.06 -0.005
0.3 0.06 -0.005
0.32 0.06 -0.005
0.34 0.06 -0.005
0.36 0.06 -0.005
0.38 0.06 -0.005
0.4 0.06 -0.005
0.42 0.06 -0.005
0.44 0.06 -0.005
0.46 0.06 -0.005
0.48 0.06 -0.005
0.5 0.06 -0.005
0.0 0.08 -0.005
0.02 0.08 -0.005
0.04 0.08 -0.005
0.06 0.08 -0.005
0.08 0.08 -0.005
0.1 0.08 -0.005
0.12 0.08 -0.005
0.14 0.08 -0.005
0.16 0.08 -0.005
0.18 0.08 -0.005
0.2 0.08 -0.005
0.22 0.08 -0.005
0.24 0.08 -0.005
0.26 0.08 -0.005
0.28 0.08 -0.005
0.3 0.08 -0.005
0.32 0.08 -0.005
0.34 0.08 -0.005
0.36 0.08 -0.005
0.38 0.08 -0.005
0.4 0.08 -0.005
0.42 0.08 -0.005
0.44 0.08 -0.005
0.46 0.08 -0.005
0.48 0.08 -0.005
0.5 0.08 -0.005
0.0 0.1 -0.005
0.02 0.1 -0.005
0.04 0.1 -0.005
0.06 0.1 -0.005
0.08 0.1 -0.005
0.1 0.1 -0.005
0.12 0.1 -0.005
0.14 0.1 -0.005
0.16 0.1 -0.005
0.18 0.1 -0.005
0.2 0.1 -0.005
0.22 0.1 -0.005
0.24 0.1 -0.005
0.26 0.1 -0.005
0.28 0.1 -0.005
0.3 0.1 -0.005
0.32 0.1 -0.005
0.34 0.1 -0.005
0.36 0.1 -0.005
0.38 0.1 -0.005
0.4 0.1 -0.005
0.42 0.1 -0.005
0.44 0.1 -0.005
0.46 0.1 -0.005
0.48 0.1 -0.005
0.5 0.1 -0.005
0.0 0.12 -0.005
0.02 0.12 -0.005
0.04 0.12 -0.005
0.06 0.12 -0.005
0.08 0.12 -0.005
0.1 0.12 -0.005
0.12 0.12 -0.005
0.14 0.12 -0.005
0.16 0.12 -0.005
0.18 0.12 -0.005
0.2 0.12 -0.005
0.22 0.12 -0.005
0.24 0.12 -0.005
0.26 0.12 -0.005
0.28 0.12 -0.005
0.3 0.12 -0.005
0.32 0.12 -0.005
0.34 0.12 -0.005
0.36 0.12 -0.005
0.38 0.12 -0.005
0.4 0.12 -0.005
0.42 0.12 -0.005
0.44 0.12 -0.005
0.46 0.12 -0.005
0.48 0.12 -0.005
0.5 0.12 -0.005
0.0 0.14 -0.005
0.02 0.14 -0.005
0.04 0.14 -0.005
0.06 0.14 -0.005
0.08 0.14 -0.005
0.1 0.14 -0.005
0.12 0.14 -0.005
0.14 0.14 -0.005
0.16 0.14 -0.005
0.18 0.14 -0.005
0.2 0.14 -0.005
0.22 0.14 -0.005
0.24 0.14 -0.005
0.26 0.14 -0.005
0.28 0.14 -0.005
0.3 0.14 -0.005
0.32 0.14 -0.005
0.34 0.14 -0.005
0.36 0.14 -0.005
0.38 0.14 -0.005
0.4 0.14 -0.005
0.42 0.14 -0.005
0.44 0.14 -0.005
0.46 0.14 -0.005
0.48 0.14 -0.005
0.5 0.14 -0.005
0.0 0.16 -0.005
0.02 0.16 -0.005
0.04 0.16 -0.005
0.06 0.16 -0.005
0.08 0.16 -0.005
0.1 0.16 -0.005
0.12 0.16 -0.005
0.14 0.16 -0.005
0.16 0.16 -0.005
0.18 0.16 -0.005
0.2 0.16 -0.005
0.22 0.16 -0.005
0.24 0.16 -0.005
0.26 0.16 -0.005
0.28 0.16 -0.005
0.3 0.16 -0.005
0.32 0.16 -0.005
0.34 0.16 -0.005
0.36 0.16 -0.005
0.38 0.16 -0.005
0.4 0.16 -0.005
0.42 0.16 -0.005
0.44 0.16 -0.005
0.46 0.16 -0.005
0.48 0.16 -0.005
0.5 0.16 -0.005
0.0 0.18 -0.005
0.02 0.18 -0.005
0.04 0.18 -0.005
0.06 0.18 -0.005
0.08 0.18 -0.005
0.1 0.18 -0.005
0.12 0.18 -0.005
0.14 0.18 -0.005
0.16 0.18 -0.005
0.18 0.18 -0.005
0.2 0.18 -0.005
0.22 0.18 -0.005
0.24 0.18 -0.005
0.26 0.18 -0.005
0.28 0.18 -0.005
0.3 0.18 -0.005
0.32 0.18 -0.005
0.34 0.18 -0.005
0.36 0.18 -0.005
0.38 0.18 -0.005
0.4 0.18 -0.005
0.42 0.18 -0.005
0.44 0.18 -0.005
0.46 0.18 -0.005
0.48 0.18 -0.005
0.5 0.18 -0.005
0.0 0.2 -0.005
0.02 0.2 -0.005
0.04 0.2 -0.005
0.06 0.2 -0.005
0.08 0.2 -0.005
0.1 0.2 -0.005
0.12 0.2 -0.005
0.14 0.2 -0.005
0.16 0.2 -0.005
0.18 0.2 -0.005
0.2 0.2 -0.005
0.22 0.2 -0.005
0.24 0.2 -0.005
0.26 0.2 -0.005
0.28 0.2 -0.005
0.3 0.2 -0.005
0.32 0.2 -0.005
0.34 0.2 -0.005
0.36 0.2 -0.005
0.38 0.2 -0.005
0.4 0.2 -0.005
0.42 0.2 -0.005
0.44 0.2 -0.005
0.46 0.2 -0.005
0.48 0.2 -0.005
0.5 0.2 -0.005
0.0 0.22 -0.005
0.02 0.22 -0.005
0.04 0.22 -0.005
0.06 0.22 -0.005
0.08 0.22 -0.005
0.1 0.22 -0.005
0.12 0.22 -0.005
0.14 0.22 -0.005
0.16 0.22 -0.005
0.18 0.22 -0.005
0.2 0.22 -0.005
0.22 0.22 -0.005
0.24 0.22 -0.005
0.26 0.22 -0.005
0.28 0.22 -0.005
0.3 0.22 -0.005
0.32 0.22 -0.005
0.34 0.22 -0.005
0.36 0.22 -0.005
0.38 0.22 -0.005
0.4 0.22 -0.005
0.42 0.22 -0.005
0.44 0.22 -0.005
0.46 0.22 -0.005
0.48 0.22 -0.005
0.5 0.22 -0.005
0.0 0.24 -0.005
0.02 0.24 -0.005
0.04 0.24 -0.005
0.06 0.24 -0.005
0.08 0.24 -0.005
0.1 0.24 -0.005
0.12 0.24 -0.005
0.14 0.24 -0.005
0.16 0.24 -0.005
0.18 0.24 -0.005
0.2 0.24 -0.005
0.22 0.24 -0.005
0.24 0.24 -0.005
0.26 0.24 -0.005
0.28 0.24 -0.005
0.3 0.24 -0.005
0.32 0.24 -0.005
0.34 0.24 -0.005
0.36 0.24 -0.005
0.38 0.24 -0.005
0.4 0.24 -0.005
0.42 0.24 -0.005
0.44 0.24 -0.005
0.46 0.24 -0.005
0.48 0.24 -0.005
0.5 0.24 -0.005
0.0 0.26 -0.005
0.02 0.26 -0.005
0.04 0.26 -0.005
0.06 0.26 -0.005
0.08 0.26 -0.005
0.1 0.26 -0.005
0.12 0.26 -0.005
0.14 0.26 -0.005
0.16 0.26 -0.005
0.18 0.26 -0.005
0.2 0.26 -0.005
0.22 0.26 -0.005
0.24 0.26 -0.005
0.26 0.26 -0.005
0.28 0.26 -0.005
0.3 0.26 -0.005
0.32 0.26 -0.005
0.34 0.26 -0.005
0.36 0.26 -0.005
0.38 0.26 -0.005
0.4 0.26 -0.005
0.42 0.26 -0.005
0.44 0.26 -0.005
0.46 0.26 -0.005
0.48 0.26 -0.005
0.5 0.26 -0.005
0.0 0.28 -0.005
0.02 0.28 -0.005
0.04 0.28 -0.005
0.06 0.28 -0.005
0.08 0.28 -0.005
0.1 0.28 -0.005
0.12 0.28 -0.005
0.14 0.28 -0.005
0.16 0.28 -0.005
0.18 0.28 -0.005
0.2 0.28 -0.005
0.22 0.28 -0.005
0.24 0.28 -0.005
0.26 0.28 -0.005
0.28 0.28 -0.005
0.3 0.28 -0.005
0.32 0.28 -0.005
0.34 0.28 -0.005
0.36 0.28 -0.005
0.38 0.28 -0.005
0.4 0.28 -0.005
0.42 0.28 -0.005
0.44 0.28 -0.005
0.46 0.28 -0.005
0.48 0.28 -0.005
0.5 0.28 -0.005
0.0 0.3 -0.005
0.02 0.3 -0.005
0.04 0.3 -0.005
0.06 0.3 -0.005
0.08 0.3 -0.005
0.1 0.3 -0.005
0.12 0.3 -0.005
0.14 0.3 -0.005
0.16 0.3 -0.005
0.18 0.3 -0.005
0.2 0.3 -0.005
0.22 0.3 -0.005
0.24 0.3 -0.005
0.26 0.3 -0.005
0.28 0.3 -0.005
0.3 0.3 -0.005
0.32 0.3 -0.005
0.34 0.3 -0.005
0.36 0.3 -0.005
0.38 0.3 -0.005
0.4 0.3 -0.005
0.42 0.3 -0.005
0.44 0.3 -0.005
0.46 0.3 -0.005
0.48 0.3 -0.005
0.5 0.3 -0.005
0.0 0.32 -0.005
0.02 0.32 -0.005
0.04 0.32 -0.005
0.06 0.32 -0.005
0.08 0.32 -0.005
0.1 0.32 -0.005
0.12 0.32 -0.005
0.14 0.32 -0.005
0.16 0.32 -0.005
0.18 0.32 -0.005
0.2 0.32 -0.005
0.22 0.32 -0.005
0.24 0.32 -0.005
0.26 0.32 -0.005
0.28 0.32 -0.005
0.3 0.32 -0.005
0.32 0.32 -0.005
0.34 0.32 -0.005
0.36 0.32 -0.005
0.38 0.32 -0.005
0.4 0.32 -0.005
0.42 0.32 -0.005
0.44 0.32 -0.005
0.46 0.32 -0.005
0.48 0.32 -0.005
0.5 0.32 -0.005
0.0 0.34 -0.005
0.02 0.34 -0.005
0.04 0.34 -0.005
0.06 0.34 -0.005
0.08 0.34 -0.005
0.1 0.34 -0.005
0.12 0.34 -0.005
0.14 0.34 -0.005
0.16 0.34 -0.005
0.18 0.34 -0.005
0.2 0.34 -0.005
0.22 0.34 -0.005
0.24 0.34 -0.005
0.26 0.34 -0.005
0.28 0.34 -0.005
0.3 0.34 -0.005
0.32 0.34 -0.005
0.34 0.34 -0.005
0.36 0.34 -0.005
0.38 0.34 -0.005
0.4 0.34 -0.005
0.42 0.34 -0.005
0.44 0.34 -0.005
0.46 0.34 -0.005
0.48 0.34 -0.005
0.5 0.34 -0.005
0.0 0.36 -0.005
0.02 0.36 -0.005
0.04 0.36 -0.005
0.06 0.36 -0.005
0.08 0.36 -0.005
0.1 0.36 -0.005
0.12 0.36 -0.005
0.14 0.36 -0.005
0.16 0.36 -0.005
0.18 0.36 -0.005
0.2 0.36 -0.005
0.22 0.36 -0.005
0.24 0.36 -0.005
0.26 0.36 -0.005
0.28 0.36 -0.005
0.3 0.36 -0.005
0.32 0.36 -0.005
0.34 0.36 -0.005
0.36 0.36 -0.005
0.38 0.36 -0.005
0.4 0.36 -0.005
0.42 0.36 -0.005
0.44 0.36 -0.005
0.46 0.36 -0.005
0.48 0.36 -0.005
0.5 0.36 -0.005
0.0 0.38 -0.005
0.02 0.38 -0.005
0.04 0.38 -0.005
0.06 0.38 -0.005
0.08 0.38 -0.005
0.1 0.38 -0.005
0.12 0.38 -0.005
0.14 0.38 -0.005
0.16 0.38 -0.005
0.18 0.38 -0.005
0.2 0.38 -0.005
0.22 0.38 -0.005
0.24 0.38 -0.005
0.26 0.38 -0.005
0.28 0.38 -0.005
0.3 0.38 -0.005
0.32 0.38 -0.005
0.34 0.38 -0.005
0.36 0.38 -0.005
0.38 0.38 -0.005
0.4 0.38 -0.005
0.42 0.38 -0.005
0.44 0.38 -0.005
0.46 0.38 -0.005
0.48 0.38 -0.005
0.5 0.38 -0.005
0.0 0.4 -0.005
0.02 0.4 -0.005
0.04 0.4 -0.005
0.06 0.4 -0.005
0.08 0.4 -0.005
0.1 0.4 -0.005
0.12 0.4 -0.005
0.14 0.4 -0.005
0.16 0.4 -0.005
0.18 0.4 -0.005
0.2 0.4 -0.005
0.22 0.4 -0.005
0.24 0.4 -0.005
0.26 0.4 -0.005
0.28 0.4 -0.005
0.3 0.4 -0.005
0.32 0.4 -0.005
0.34 0.4 -0.005
0.36 0.4 -0.005
0.38 0.4 -0.005
0.4 0.4 -0.005
0.42 0.4 -0.005
0.44 0.4 -0.005
0.46 0.4 -0.005
0.48 0.4 -0.005
0.5 0.4 -0.005
0.0 0.42 -0.005
0.02 0.42 -0.005
0.04 0.42 -0.005
0.06 0.42 -0.005
0.08 0.42 -0.005
0.1 0.42 -0.005
0.12 0.42 -0.005
0.14 0.42 -0.005
0.16 0.42 -0.005
0.18 0.42 -0.005
0.2 0.42 -0.005
0.22 0.42 -0.005
0.24 0.42 -0.005
0.26 0.42 -0.005
0.28 0.42 -0.005
0.3 0.42 -0.005
0.32 0.42 -0.005
0.34 0.42 -0.005
0.36 0.42 -0.005
0.38 0.42 -0.005
0.4 0.42 -0.005
0.42 0.42 -0.005
0.44 0.42 -0.005
0.46 0.42 -0.005
0.48 0.42 -0.005
0.5 0.42 -0.005
0.0 0.44 -0.005
0.02 0.44 -0.005
0.04 0.44 -0.005
0.06 0.44 -0.005
0.08 0.44 -0.005
0.1 0.44 -0.005
0.12 0.44 -0.005
0.14 0.44 -0.005
0.16 0.44 -0.005
0.18 0.44 -0.005
0.2 0.44 -0.005
0.22 0.44 -0.005
0.24 0.44 -0.005
0.26 0.44 -0.005
0.28 0.44 -0.005
0.3 0.44 -0.005
0.32 0.44 -0.005
0.34 0.44 -0.005
0.36 0.44 -0.005
0.38 0.44 -0.005
0.4 0.44 -0.005
0.42 0.44 -0.005
0.44 0.44 -0.005
0.46 0.44 -0.005
0.48 0.44 -0.005
0.5 0.44 -0.005
[...]
CELL_DATA 3750
SCALARS P float 1
LOOKUP_TABLE default
99999.996332742
100000.00635933549
99999.99636858948
99999.98973421632
100000.00625592736
99999.99665134055
100000.017355344
99999.98985743003
100000.00572154741
99999.99702177258
99999.97146121386
100000.01711285692
99999.99072528558
100000.00501646895
99999.99745618366
100000.04774309558
99999.97179836621
100000.01556739512
99999.99186284767
100000.004200217
99999.99791088533
99999.92087795114
100000.04720836449
99999.97441986948
100000.01354346631
99999.99317922024
100000.00336302487
99999.99834911613
100000.13189475182
99999.92157868408
100000.04262507652
99999.97783869099
100000.01121776587
99999.99452674473
100000.00257770832
99999.99874335388
99999.78076992652
100000.13109922582
99999.9295055603
100000.03666595259
99999.98174944916
100000.00886222637
99999.99578891124
100000.00189392877
99999.99907751105
100000.3650520442
99999.78114859018
100000.11723465966
99999.93976330818
100000.0298918382
99999.98567639846
100000.00668677042
99999.99688746242
100000.00133569553
99999.99934612804
99999.39269122422
100000.36658607397
99999.80544097144
100000.0993872933
99999.95134570093
100000.02315870677
99999.98926492092
100000.00482621188
99999.99778554216
100000.00090536743
99999.9995519386
100001.01073653418
99999.38521817196
100000.32369474361
99999.8364887908
100000.0793902454
99999.96272445758
100000.01708436482
99999.9922984914
100000.0033369646
99999.99848045676
100000.00059049498
99999.99970282793
99998.31843484688
100001.03407789583
99999.46145961784
100000.26936922598
99999.87095483067
100000.0599909305
99999.97284299838
100000.01202648034
99999.99469819608
100000.00221312877
99999.99899239937
100000.00037093772
99999.9998090194
100002.7981531471
99998.2561398358
100000.89736298453
99999.55689022125
100000.20972223704
99999.90390163327
100000.04300245963
99999.9811319312
100000.00809419931
99999.9964891715
100000.00140928567
99999.99935316044
100000.00022459475
99999.99988094949
99995.3418154359
100002.95067389046
99998.50360647948
100000.72878587517
99999.66025675798
100000.15363055178
99999.93224786794
100000.02932469462
99999.9874640274
100000.00521680735
99999.99775824393
100000.00086216388
99999.99959728036
100000.00013113425
99999.99992794776
100007.76642083912
99994.99054654034
100002.49824157503
99998.80311918957
100000.54920607794
99999.75564121843
100000.10629076396
99999.95462259749
100000.01907214886
99999.9920139567
100000.0032235912
99999.9986163759
100000.00050678938
99999.9997564241
100000.00007384385
99999.99995762478
99987.00928037718
100008.53368788627
99995.8257108257
100001.96268929873
99999.1156460864
100000.38700906467
99999.83440023605
100000.06970649095
99999.97103905822
100000.01185477672
99999.99510915742
100000.00191091669
99999.99917247635
100000.0002860761
99999.9998566551
100000.00004009494
99999.99997576408
100021.87052240442
99985.42075808035
100006.97924183279
99996.78968013587
100001.4179941175
99999.39106523825
100000.25629975341
99999.89382746648
100000.04346652806
99999.98233690058
100000.0070530891
99999.99711285222
100000.00108654513
99999.99951915434
100000.00015485908
99999.99991779425
100000.00002097568
99999.99998651096
99962.75869163817
100024.94589822977
99988.32910085557
100005.23270102082
99997.73968641926
100000.95124340708
99999.60700257299
100000.16021956879
99999.93537500544
100000.02583628519
99999.98967851503
100000.00401997787
99999.9983524868
100000.00059189217
99999.99972779297
100000.00008016967
99999.99995399381
100000.00001055788
99999.99999268964
100064.67348025968
99957.34011451896
100019.50129241444
99991.5130320344
100003.57645356833
99998.52811871908
100000.5964126226
99999.7611463832
100000.09488220254
99999.96254533132
100000.01466593717
99999.99420623278
100000.0021947789
99999.99908823373
100000.00030805595
99999.99984942084
100000.00003950152
99999.99997483967
100000.00000510074
99999.99999614035
99884.06085394316
100072.59652841043
99967.46465491627
100013.66759325584
99994.39559552651
100002.25107438001
99999.10695806496
100000.3512357566
99999.86276606763
100000.05337913963
99999.9792779559
100000.00795926343
99999.99686714323
100000.00114618553
99999.999508697
100000.00015236909
99999.99991833945
100000.00001836878
99999.99998653668
100000.0000023561
99999.9999980141
100219.56271308349
99877.47699595134
100054.08228773388
99978.1954825321
100008.67018600088
99996.60857277495
100001.31566333158
99999.49254467996
100000.1950502025
99999.92523973751
100000.02858633536
99999.98903050437
100000.00413000873
99999.9983625485
100000.00057047415
99999.99974095669
100000.000070909
99999.99995643445
100000.00000793612
99999.99999294274
100000.00000103384
99999.99999900375
99538.62707027966
100203.72884892233
99910.38391723622
100034.3151030429
99986.81040154144
100005.01100689727
99998.10181475038
100000.71772275769
99999.72887924197
100000.10242619683
99999.96129570084
100000.01458998994
99999.99443052482
100000.00204591331
99999.99916885927
100000.00026856385
99999.99986552443
100000.00003044218
99999.99997705407
100000.0000030841
99999.99999637215
100000.0000004265
99999.9999995127
101183.81670005008
99659.0120294747
100147.71172099382
99946.8949797726
100019.6015368496
99992.78361029687
100002.66584086744
99999.01249011024
100000.36683716631
99999.86343994351
100000.05095512894
99999.98092299128
100000.00709708472
99999.99727950136
100000.00096343785
99999.99958750319
100000.00011774852
99999.99993074895
100000.00001153315
99999.99998802724
100000.00000099136
99999.9999981693
100000.00000016185
99999.99999976756
95614.72923247822
100604.33046523259
99754.87157057493
100080.15819049247
99971.78180618022
100010.02930342998
99996.38875597401
100001.3111282802
99999.52087095304
100000.17605611961
99999.93504999959
100000.02403325307
99999.99103333619
100000.00328448502
99999.99871540474
100000.00042711504
99999.99979780326
100000.0000464465
99999.99996432281
100000.00000337577
99999.9999937923
100000.00000018188
99999.99999909244
100000.0000000542
99999.99999989175
98638.74437750035
128625.36310808166
100408.95905584897
99882.92638260666
100038.65888299572
99986.75696239222
100004.65007741026
99998.34200947225
100000.59760784419
99999.7828998786
100000.07939991861
99999.9708114291
100000.01074051217
99999.99597243711
100000.00143866854
99999.99940870507
100000.00017439153
99999.99990071994
100000.00001497882
99999.9999814584
100000.00000026036
99999.99999679427
99999.9999999243
99999.9999995577
100000.00000001409
99999.99999995084
99354.45073403041
103341.69640077886
156262.57931104064
100157.64586577284
99951.41268271171
100016.09010243774
99994.45329143034
100001.95449962637
99999.30135103293
100000.25235360135
99999.90818421263
100000.03361963571
99999.98760682484
100000.00453500809
99999.99826401452
100000.00058889053
99999.99973069437
100000.00006201064
99999.99995030697
100000.0000024078
99999.99999021585
99999.99999932908
99999.99999834887
99999.99999987922
99999.99999978792
100000.00000000105
99999.99999997819
99853.27743862374
100321.01123622955
113952.95730711381
174650.40691221558
100049.10456399723
99983.3855694108
100005.79628624301
99997.93968052407
100000.74142605314
99999.73088213945
100000.09838884254
99999.96385957948
100000.01332275519
99999.995029607
100000.0017954367
99999.99927501504
100000.00021813258
99999.99987559501
100000.00001570617
99999.99997420034
99999.99999822257
99999.99999474171
99999.9999992377
99999.99999915186
99999.99999990099
99999.99999989997
99999.99999999811
99999.99999999061
99988.34247539272
99806.83985728312
105123.73076113265
128387.2506685889
183458.70410788548
100010.4606610377
99995.50494199396
100001.75499293061
99999.33398477454
100000.25043038352
99999.90619888704
100000.03513857767
99999.98683570191
100000.00490558422
99999.9981137924
100000.00065358791
99999.99970006623
100000.0000662787
99999.9999396847
99999.99999882694
99999.99998595369
99999.99999742488
99999.99999712528
99999.99999940183
99999.99999956579
99999.99999993359
99999.99999995358
99999.99999999805
99999.99999999613
100009.29698761961
99889.20868055335
101016.50136269938
114466.18213820476
143335.90633243197
185120.26781990484
100000.45393427809
99999.21894577576
100000.40851363065
99999.82171696525
100000.07299684446
99999.97104727452
100000.01131249334
99999.99560425137
100000.00165064452
99999.99931565841
100000.00020658685
99999.99987142746
100000.0000093223
99999.99996828634
99999.99999415813
99999.99999198563
99999.99999778676
99999.99999840921
99999.99999959569
99999.9999997789
99999.99999996004
99999.99999997887
99999.99999999866
99999.9999999984
100006.0001904649
99968.23442095166
100102.06997256739
104729.95228238833
127389.47051887999
155868.5122249225
182932.29202848583
99999.12100603727
100000.04594720299
100000.04729074397
99999.96631470177
100000.01693268064
99999.99246025305
100000.0031703865
99999.99867105733
100000.00048474192
99999.99975349159
100000.00004448173
99999.99993887648
99999.99999114606
99999.99998170226
99999.99999403511
99999.99999526079
99999.99999839741
99999.9999991148
99999.9999997491
99999.99999988831
99999.99999997758
99999.99999999056
99999.99999999926
99999.99999999939
100002.05270175016
99996.00244233181
99967.02003238891
101306.06737029341
111885.32868888859
141454.0420051394
164553.26162538654
179429.208106757
99999.4830839929
100000.10908478823
99999.98326938546
99999.99945009092
100000.00223052943
99999.99856002122
100000.00070091772
99999.99963684737
100000.00010323728
99999.99990258463
99999.99999217331
99999.99996599379
99999.99998764279
99999.99998861564
99999.9999952596
99999.99999714168
99999.99999893991
99999.99999950819
99999.99999985332
99999.99999994412
99999.99999998818
99999.99999999581
99999.99999999953
99999.9999999999
100000.3896813679
100001.39307837823
99977.67979161475
100266.87933060064
104406.46725033947
122404.20749988144
153953.20300723187
169561.93536491384
176066.74137264307
99999.82381860024
100000.05398600588
99999.9858133694
100000.00319835282
99999.99952232717
99999.99992924446
100000.00006763506
99999.9999011503
99999.99999304482
99999.99995100815
99999.99997931116
99999.99997812342
99999.99998901249
99999.99999260742
99999.99999662193
99999.9999982686
99999.99999933848
99999.99999972891
99999.99999991785
99999.99999997231
99999.99999999403
99999.99999999825
99999.99999999977
99999.99999999993
99999.96927270606
100001.12490977973
99993.06655151566
100029.13180347237
101351.64331881666
110251.27501429273
134867.68870474442
163199.07119143434
171878.2959140327
173448.0585236373
99999.96524363219
100000.0169324793
99999.99411618398
100000.0018066123
99999.99949994948
100000.00008877815
99999.99994861093
99999.99995925654
99999.99996819816
99999.99996753437
99999.99997933903
99999.99998471014
99999.99999152767
99999.99999513477
99999.99999773869
99999.99999895805
99999.99999960454
99999.99999985255
99999.99999995591
99999.99999998655
99999.99999999713
99999.99999999924
99999.99999999993
99999.99999999997
99999.93900020423
100000.41295301414
99998.9633418046
99993.59026457224
100350.0719648166
103915.32016548954
119105.15461713783
147093.43997863797
168910.77026125457
172569.67926231647
171682.81524616797
100000.00192633025
100000.002983862
99999.9983893074
100000.0006327588
99999.99976365441
100000.00003679474
99999.9999442143
99999.9999677549
99999.99996717152
99999.99997503201
99999.99998286566
99999.99998903816
99999.99999390752
99999.99999681611
99999.99999854961
99999.99999938166
99999.99999977153
99999.99999992091
99999.99999997701
99999.9999999936
99999.99999999868
99999.99999999968
100000.0000000001
100000.00000000006
99999.97155858163
100000.08376280316
100000.21771086186
99995.0260915692
100071.0272440542
101306.55350079485
108706.79781943174
130207.20345231377
157206.25592168703
171767.9095738307
172446.84884152567
170653.5092293462
100000.00514894033
99999.99965045444
99999.99979201038
100000.00013449506
99999.99990774214
99999.9999905286
99999.99995447064
99999.99996892847
99999.9999716618
99999.99998017335
99999.9999868075
99999.99999219195
99999.99999580585
99999.99999794966
99999.9999991002
99999.99999963967
99999.99999987187
99999.9999999585
99999.99999998836
99999.99999999703
99999.99999999937
99999.99999999994
100000.00000000004
100000.00000000003
99999.99222156819
99999.99582402915
100000.21713081044
99998.36648509942
100008.1737711914
100382.40099312585
103445.93910986926
116162.43008509612
141909.1245515272
164348.30887573268
172752.86582216108
172015.56099432928
170163.37942289826
100000.00254997496
99999.9994599781
100000.00006576856
99999.99998774796
99999.99995623995
99999.99997059767
99999.99996221808
99999.9999712487
99999.99997686839
99999.99998451461
99999.9999902587
99999.9999945486
99999.99999720514
99999.99999870674
99999.99999945717
99999.99999979427
99999.99999992999
99999.99999997855
99999.9999999944
99999.99999999873
99999.99999999965
100000.0
100000.0000000001
100000.00000000003
99999.99929634684
99999.98812271946
100000.08419096914
99999.7196443399
99998.61746732792
100096.37435221694
101213.77051413349
107416.94565562211
125975.37637636499
152408.7249361524
168663.35164190555
172724.23740222838
171544.7796910791
170011.77847103908
100000.00075765843
99999.99974589495
100000.00004795034
99999.99996088144
99999.99996618312
99999.99996567104
99999.99996763584
99999.99997502385
99999.99998168998
99999.99998825497
99999.99999302652
99999.99999628597
99999.99999818813
99999.99999920242
99999.99999968077
99999.999999885
99999.99999996279
99999.99999998916
99999.99999999734
99999.99999999949
99999.99999999994
99999.99999999994
100000.00000000003
100000.00000000003
100000.00058044233
99999.99430112216
100000.01814004053
100000.02998003515
99998.7961275772
100019.38709427338
100385.69567444843
103004.84625593321
113725.43795115419
136980.06590389396
160523.89666039453
170840.65916517656
172269.12516209506
171149.39443977256
170033.54567305336
100000.00009634045
99999.99991999073
100000.00000236381
99999.99996142388
99999.99996659844
99999.99996693802
99999.99997229951
99999.99997936186
99999.99998589061
99999.999991359
99999.99999514142
99999.99999753312
99999.99999885449
99999.99999951941
99999.99999981659
99999.99999993712
99999.9999999805
99999.9999999947
99999.99999999868
99999.9999999997
100000.00000000007
100000.00000000003
100000.00000000003
100000.00000000003
100000.00040599002
99999.99842356806
99999.99965985942
100000.04337741458
99999.58551534497
100002.28514439201
100109.7776315257
101104.27494547876
106314.92985108598
122366.11504208815
147575.46806320993
165970.73787775377
171659.3873446215
171721.37872155954
170854.66942826592
170120.63630025278
99999.99995104889
99999.99997633816
99999.99997724305
99999.99996442535
99999.9999670219
99999.99997042556
99999.99997681633
99999.99998359675
99999.99998941587
99999.99999382335
99999.99999670012
99999.99999840157
99999.99999929282
99999.99999971685
99999.99999989694
99999.99999996639
99999.99999999013
99999.99999999753
99999.99999999945
100000.0
99999.99999999996
100000.00000000003
100000.00000000003
100000.00000000003
100000.00015037904
99999.99985020903
99999.99774592115
100000.01802271792
99999.91998085265
99999.66624459706
100027.18289485999
100372.35622531372
102610.34265219083
111664.82273304428
132581.1975779486
156415.7725720192
169139.24360457127
171743.61473387995
171233.9003711123
170645.16506262057
170188.87503068577
99999.99994915815
99999.99998265378
99999.9999679878
99999.9999666031
99999.99996916685
99999.99997463013
99999.99998117097
99999.99998737987
99999.99999227078
99999.99999570251
99999.99999781312
99999.99999898896
99999.99999957328
99999.99999983699
99999.99999994344
99999.99999998236
99999.99999999501
99999.99999999878
99999.99999999978
100000.00000000003
100000.0
100000.00000000003
100000.00000000003
100000.00000000007
100000.00002882053
100000.0001044379
99999.9988955681
100000.00417528345
100000.00214658343
99999.68628352295
100005.4134899486
100115.05724147269
100991.85938413595
105384.1178907312
119243.21567909347
143032.58752943034
162870.21341146127
170688.92203567654
171500.81251625106
170852.4110606613
170483.42448978705
170201.27782080532
99999.99996302812
99999.99997706032
99999.99996612471
99999.99996882878
99999.99997260219
99999.9999789458
99999.99998517343
99999.99999056879
99999.999994502
99999.99999708525
99999.9999985849
99999.99999937527
99999.99999974821
99999.99999990818
99999.99999996957
99999.99999999104
99999.99999999757
99999.99999999948
99999.99999999993
99999.99999999996
100000.00000000003
100000.00000000003
100000.00000000003
100000.00000000003
99999.99998990567
100000.0000628299
99999.99971138836
100000.00005311822
100000.00899851946
99999.88779954228
100000.63720183802
100032.1170113913
100350.26172407351
102263.07609846839
109931.10810960813
128622.07730295163
152345.31605860448
167018.06693098057
171243.7936326135
171157.0588134656
170563.03652708136
170332.1094703908
170129.97487691452
99999.99996887882
99999.99997226176
99999.99996729856
99999.99997170718
99999.9999766431
99999.99998305347
99999.99998866608
99999.99999314047
99999.99999618747
99999.99999807037
99999.99999910516
99999.99999962232
99999.9999998545
99999.9999999493
99999.999999984
99999.99999999558
99999.99999999891
99999.99999999985
99999.99999999997
99999.99999999997
100000.00000000003
100000.00000000003
100000.00000000003
100000.00000000003
99999.99998000248
100000.00000684884
99999.99999394479
99999.9995244407
100000.00417473317
99999.97610403292
99999.90880117619
100007.837994853
100115.01252223473
100884.12731748437
104598.33444408243
116558.43100976382
138747.68865027482
159633.36070811443
169349.5160154634
171264.18917460687
170813.0962514014
170328.47038442848
170156.18636345645
169965.46078478728
99999.99996946777
99999.9999704344
99999.99996987428
99999.99997521048
99999.9999807717
99999.99998675303
99999.99999157482
99999.99999513781
99999.99999742018
99999.99999875223
99999.99999944682
99999.99999977672
99999.99999991787
99999.99999997267
99999.99999999175
99999.99999999783
99999.99999999953
99999.99999999996
100000.0
99999.99999999997
100000.00000000001
100000.00000000003
100000.00000000003
100000.00000000003
99999.99997672053
99999.99998013001
100000.00003684817
99999.99972693458
100000.00114083549
99999.99907570446
99999.91277251371
100001.5416047452
100034.85052620669
100324.1061223538
101961.54533273417
108471.16327950112
125092.9393414098
148309.56554344087
164683.08746990445
170446.9470011055
171036.07496573005
170495.99338476727
170105.51380057912
169928.7410656645
169702.65289648366
99999.99996914747
99999.99997099185
99999.99997322509
99999.9999790314
99999.99998465547
99999.99998993143
99999.9999939005
99999.99999663763
99999.99999829504
99999.999999211
99999.99999966529
99999.99999987074
99999.99999995457
99999.99999998554
99999.99999999588
99999.99999999905
99999.9999999998
100000.00000000009
99999.99999999996
100000.00000000007
100000.00000000003
100000.00000000003
100000.00000000003
100000.00000000003
99999.99997464396
99999.99997161195
100000.00001843057
99999.99989420075
100000.00015253115
100000.00175396386
99999.9682007239
100000.17717718381
100009.57780299084
100111.64212309355
100784.59278154992
103936.17062041914
114252.2819128269
134756.34100046934
156257.7737864701
167787.159822732
170797.7777701072
170710.9463807502
170194.82404922278
169856.07578628446
169630.72002791148
169347.580582902
99999.9999697857
99999.99997308823
99999.99997697737
99999.99998283776
99999.99998810193
99999.99999254956
99999.99999569388
99999.9999977295
99999.99999889862
99999.99999951189
99999.99999980185
99999.99999992682
99999.99999997535
99999.99999999248
99999.99999999799
99999.99999999956
99999.99999999996
100000.00000000001
100000.00000000001
100000.00000000003
100000.00000000003
100000.00000000003
100000.00000000003
100000.00000000003
99999.9999735222
99999.99996995852
99999.99999807499
99999.99995842867
99999.99997762014
100000.0008580083
99999.99297557121
99999.97173818969
100002.30630484066
100035.96865060327
100296.72778529863
101701.52092694462
107240.96600530126