# vtk DataFile Version 2.0
JuliaCFD
ASCII
DATASET UNSTRUCTURED_GRID

POINTS 7752 float
0.0 0.0 -0.005
0.02 0.0 -0.005
0.04 0.0 -0.005
0.06 0.0 -0.005
0.08 0.0 -0.005
0.1 0.0 -0.005
0.12 0.0 -0.005
0.14 0.0 -0.005
0.16 0.0 -0.005
0.18 0.0 -0.005
0.2 0.0 -0.005
0.22 0.0 -0.005
0.24 0.0 -0.005
0.26 0.0 -0.005
0.28 0.0 -0.005
0.3 0.0 -0.005
0.32 0.0 -0.005
0.34 0.0 -0.005
0.36 0.0 -0.005
0.38 0.0 -0.005
0.4 0.0 -0.005
0.42 0.0 -0.005
0.44 0.0 -0.005
0.46 0.0 -0.005
0.48 0.0 -0.005
0.5 0.0 -0.005
0.0 0.02 -0.005
0.02 0.02 -0.005
0.04 0.02 -0.005
0.06 0.02 -0.005
0.08 0.02 -0.005
0.1 0.02 -0.005
0.12 0.02 -0.005
0.14 0.02 -0.005
0.16 0.02 -0.005
0.18 0.02 -0.005
0.2 0.02 -0.005
0.22 0.02 -0.005
0.24 0.02 -0.005
0.26 0.02 -0.005
0.28 0.02 -0.005
0.3 0.02 -0.005
0.32 0.02 -0.005
0.34 0.02 -0.005
0.36 0.02 -0.005
0.38 0.02 -0.005
0.4 0.02 -0.005
0.42 0.02 -0.005
0.44 0.02 -0.005
0.46 0.02 -0.005
0.48 0.02 -0.005
0.5 0.02 -0.005
0.0 0.04 -0.005
0.02 0.04 -0.005
0.04 0.04 -0.005
0.06 0.04 -0.005
0.08 0.04 -0.005
0.1 0.04 -0.005
0.12 0.04 -0.005
0.14 0.04 -0.005
0.16 0.04 -0.005
0.18 0.04 -0.005
0.2 0.04 -0.005
0.22 0.04 -0.005
0.24 0.04 -0.005
0.26 0.04 -0.005
0.28 0.04 -0.005
0.3 0.04 -0.005
0.32 0.04 -0.005
0.34 0.04 -0.005
0.36 0.04 -0.005
0.38 0.04 -0.005
0.4 0.04 -0.005
0.42 0.04 -0.005
0.44 0.04 -0.005
0.46 0.04 -0.005
0.48 0.04 -0.005
0.5 0.04 -0.005
0.0 0.06 -0.005
0.02 0.06 -0.005
0.04 0.06 -0.005
0.06 0.06 -0.005
0.08 0.06 -0.005
0.1 0.06 -0.005
0.12 0.06 -0.005
0.14 0.06 -0.005
0.16 0.06 -0.005
0.18 0.06 -0.005
0.2 0.06 -0.005
0.22 0.06 -0.005
0.24 0.06 -0.005
0.26 0.06 -0.005
0.28 0.06 -0.005
0.3 0.06 -0.005
0.32 0.06 -0.005
0.34 0.06 -0.005
0.36 0.06 -0.005
0.38 0.06 -0.005
0.4 0.06 -0.005
0.42 0.06 -0.005
0.44 0.06 -0.005
0.46 0.06 -0.005
0.48 0.06 -0.005
0.5 0.06 -0.005
0.0 0.08 -0.005
0.02 0.08 -0.005
0.04 0.08 -0.005
0.06 0.08 -0.005
0.08 0.08 -0.005
0.1 0.08 -0.005
0.12 0.08 -0.005
0.14 0.08 -0.005
0.16 0.08 -0.005
0.18 0.08 -0.005
0.2 0.08 -0.005
0.22 0.08 -0.005
0.24 0.08 -0.005
0.26 0.08 -0.005
0.28 0.08 -0.005
0.3 0.08 -0.005
0.32 0.08 -0.005
0.34 0.08 -0.005
0.36 0.08 -0.005
0.38 0.08 -0.005
0.4 0.08 -0.005
0.42 0.08 -0.005
0.44 0.08 -0.005
0.46 0.08 -0.005
0.48 0.08 -0.005
0.5 0.08 -0.005
0.0 0.1 -0.005
0.02 0.1 -0.005
0.04 0.1 -0.005
0.06 0.1 -0.005
0.08 0.1 -0.005
0.1 0.1 -0.005
0.12 0.1 -0.005
0.14 0.1 -0.005
0.16 0.1 -0.005
0.18 0.1 -0.005
0.2 0.1 -0.005
0.22 0.1 -0.005
0.24 0.1 -0.005
0.26 0.1 -0.005
0.28 0.1 -0.005
0.3 0.1 -0.005
0.32 0.1 -0.005
0.34 0.1 -0.005
0.36 0.1 -0.005
0.38 0.1 -0.005
0.4 0.1 -0.005
0.42 0.1 -0.005
0.44 0.1 -0.005
0.46 0.1 -0.005
0.48 0.1 -0.005
0.5 0.1 -0.005
0.0 0.12 -0.005
0.02 0.12 -0.005
0.04 0.12 -0.005
0.06 0.12 -0.005
0.08 0.12 -0.005
0.1 0.12 -0.005
0.12 0.12 -0.005
0.14 0.12 -0.005
0.16 0.12 -0.005
0.18 0.12 -0.005
0.2 0.12 -0.005
0.22 0.12 -0.005
0.24 0.12 -0.005
0.26 0.12 -0.005
0.28 0.12 -0.005
0.3 0.12 -0.005
0.32 0.12 -0.005
0.34 0.12 -0.005
0.36 0.12 -0.005
0.38 0.12 -0.005
0.4 0.12 -0.005
0.42 0.12 -0.005
0.44 0.12 -0.005
0.46 0.12 -0.005
0.48 0.12 -0.005
0.5 0.12 -0.005
0.0 0.14 -0.005
0.02 0.14 -0.005
0.04 0.14 -0.005
0.06 0.14 -0.005
0.08 0.14 -0.005
0.1 0.14 -0.005
0.12 0.14 -0.005
0.14 0.14 -0.005
0.16 0.14 -0.005
0.18 0.14 -0.005
0.2 0.14 -0.005
0.22 0.14 -0.005
0.24 0.14 -0.005
0.26 0.14 -0.005
0.28 0.14 -0.005
0.3 0.14 -0.005
0.32 0.14 -0.005
0.34 0.14 -0.005
0.36 0.14 -0.005
0.38 0.14 -0.005
0.4 0.14 -0.005
0.42 0.14 -0.005
0.44 0.14 -0.005
0.46 0.14 -0.005
0.48 0.14 -0.005
0.5 0.14 -0.005
0.0 0.16 -0.005
0.02 0.16 -0.005
0.04 0.16 -0.005
0.06 0.16 -0.005
0.08 0.16 -0.005
0.1 0.16 -0.005
0.12 0.16 -0.005
0.14 0.16 -0.005
0.16 0.16 -0.005
0.18 0.16 -0.005
0.2 0.16 -0.005
0.22 0.16 -0.005
0.24 0.16 -0.005
0.26 0.16 -0.005
0.28 0.16 -0.005
0.3 0.16 -0.005
0.32 0.16 -0.005
0.34 0.16 -0.005
0.36 0.16 -0.005
0.38 0.16 -0.005
0.4 0.16 -0.005
0.42 0.16 -0.005
0.44 0.16 -0.005
0.46 0.16 -0.005
0.48 0.16 -0.005
0.5 0.16 -0.005
0.0 0.18 -0.005
0.02 0.18 -0.005
0.04 0.18 -0.005
0.06 0.18 -0.005
0.08 0.18 -0.005
0.1 0.18 -0.005
0.12 0.18 -0.005
0.14 0.18 -0.005
0.16 0.18 -0.005
0.18 0.18 -0.005
0.2 0.18 -0.005
0.22 0.18 -0.005
0.24 0.18 -0.005
0.26 0.18 -0.005
0.28 0.18 -0.005
0.3 0.18 -0.005
0.32 0.18 -0.005
0.34 0.18 -0.005
0.36 0.18 -0.005
0.38 0.18 -0.005
0.4 0.18 -0.005
0.42 0.18 -0.005
0.44 0.18 -0.005
0.46 0.18 -0.005
0.48 0.18 -0.005
0.5 0.18 -0.005
0.0 0.2 -0.005
0.02 0.2 -0.005
0.04 0.2 -0.005
0.06 0.2 -0.005
0.08 0.2 -0.005
0.1 0.2 -0.005
0.12 0.2 -0.005
0.14 0.2 -0.005
0.16 0.2 -0.005
0.18 0.2 -0.005
0.2 0.2 -0.005
0.22 0.2 -0.005
0.24 0.2 -0.005
0.26 0.2 -0.005
0.28 0.2 -0.005
0.3 0.2 -0.005
0.32 0.2 -0.005
0.34 0.2 -0.005
0.36 0.2 -0.005
0.38 0.2 -0.005
0.4 0.2 -0.005
0.42 0.2 -0.005
0.44 0.2 -0.005
0.46 0.2 -0.005
0.48 0.2 -0.005
0.5 0.2 -0.005
0.0 0.22 -0.005
0.02 0.22 -0.005
0.04 0.22 -0.005
0.06 0.22 -0.005
0.08 0.22 -0.005
0.1 0.22 -0.005
0.12 0.22 -0.005
0.14 0.22 -0.005
0.16 0.22 -0.005
0.18 0.22 -0.005
0.2 0.22 -0.005
0.22 0.22 -0.005
0.24 0.22 -0.005
0.26 0.22 -0.005
0.28 0.22 -0.005
0.3 0.22 -0.005
0.32 0.22 -0.005
0.34 0.22 -0.005
0.36 0.22 -0.005
0.38 0.22 -0.005
0.4 0.22 -0.005
0.42 0.22 -0.005
0.44 0.22 -0.005
0.46 0.22 -0.005
0.48 0.22 -0.005
0.5 0.22 -0.005
0.0 0.24 -0.005
0.02 0.24 -0.005
0.04 0.24 -0.005
0.06 0.24 -0.005
0.08 0.24 -0.005
0.1 0.24 -0.005
0.12 0.24 -0.005
0.14 0.24 -0.005
0.16 0.24 -0.005
0.18 0.24 -0.005
0.2 0.24 -0.005
0.22 0.24 -0.005
0.24 0.24 -0.005
0.26 0.24 -0.005
0.28 0.24 -0.005
0.3 0.24 -0.005
0.32 0.24 -0.005
0.34 0.24 -0.005
0.36 0.24 -0.005
0.38 0.24 -0.005
0.4 0.24 -0.005
0.42 0.24 -0.005
0.44 0.24 -0.005
0.46 0.24 -0.005
0.48 0.24 -0.005
0.5 0.24 -0.005
0.0 0.26 -0.005
0.02 0.26 -0.005
0.04 0.26 -0.005
0.06 0.26 -0.005
0.08 0.26 -0.005
0.1 0.26 -0.005
0.12 0.26 -0.005
0.14 0.26 -0.005
0.16 0.26 -0.005
0.18 0.26 -0.005
0.2 0.26 -0.005
0.22 0.26 -0.005
0.24 0.26 -0.005
0.26 0.26 -0.005
0.28 0.26 -0.005
0.3 0.26 -0.005
0.32 0.26 -0.005
0.34 0.26 -0.005
0.36 0.26 -0.005
0.38 0.26 -0.005
0.4 0.26 -0.005
0.42 0.26 -0.005
0.44 0.26 -0.005
0.46 0.26 -0.005
0.48 0.26 -0.005
0.5 0.26 -0.005
0.0 0.28 -0.005
0.02 0.28 -0.005
0.04 0.28 -0.005
0.06 0.28 -0.005
0.08 0.28 -0.005
0.1 0.28 -0.005
0.12 0.28 -0.005
0.14 0.28 -0.005
0.16 0.28 -0.005
0.18 0.28 -0.005
0.2 0.28 -0.005
0.22 0.28 -0.005
0.24 0.28 -0.005
0.26 0.28 -0.005
0.28 0.28 -0.005
0.3 0.28 -0.005
0.32 0.28 -0.005
0.34 0.28 -0.005
0.36 0.28 -0.005
0.38 0.28 -0.005
0.4 0.28 -0.005
0.42 0.28 -0.005
0.44 0.28 -0.005
0.46 0.28 -0.005
0.48 0.28 -0.005
0.5 0.28 -0.005
0.0 0.3 -0.005
0.02 0.3 -0.005
0.04 0.3 -0.005
0.06 0.3 -0.005
0.08 0.3 -0.005
0.1 0.3 -0.005
0.12 0.3 -0.005
0.14 0.3 -0.005
0.16 0.3 -0.005
0.18 0.3 -0.005
0.2 0.3 -0.005
0.22 0.3 -0.005
0.24 0.3 -0.005
0.26 0.3 -0.005
0.28 0.3 -0.005
0.3 0.3 -0.005
0.32 0.3 -0.005
0.34 0.3 -0.005
0.36 0.3 -0.005
0.38 0.3 -0.005
0.4 0.3 -0.005
0.42 0.3 -0.005
0.44 0.3 -0.005
0.46 0.3 -0.005
0.48 0.3 -0.005
0.5 0.3 -0.005
0.0 0.32 -0.005
0.02 0.32 -0.005
0.04 0.32 -0.005
0.06 0.32 -0.005
0.08 0.32 -0.005
0.1 0.32 -0.005
0.12 0.32 -0.005
0.14 0.32 -0.005
0.16 0.32 -0.005
0.18 0.32 -0.005
0.2 0.32 -0.005
0.22 0.32 -0.005
0.24 0.32 -0.005
0.26 0.32 -0.005
0.28 0.32 -0.005
0.3 0.32 -0.005
0.32 0.32 -0.005
0.34 0.32 -0.005
0.36 0.32 -0.005
0.38 0.32 -0.005
0.4 0.32 -0.005
0.42 0.32 -0.005
0.44 0.32 -0.005
0.46 0.32 -0.005
0.48 0.32 -0.005
0.5 0.32 -0.005
0.0 0.34 -0.005
0.02 0.34 -0.005
0.04 0.34 -0.005
0.06 0.34 -0.005
0.08 0.34 -0.005
0.1 0.34 -0.005
0.12 0.34 -0.005
0.14 0.34 -0.005
0.16 0.34 -0.005
0.18 0.34 -0.005
0.2 0.34 -0.005
0.22 0.34 -0.005
0.24 0.34 -0.005
0.26 0.34 -0.005
0.28 0.34 -0.005
0.3 0.34 -0.005
0.32 0.34 -0.005
0.34 0.34 -0.005
0.36 0.34 -0.005
0.38 0.34 -0.005
0.4 0.34 -0.005
0.42 0.34 -0.005
0.44 0.34 -0.005
0.46 0.34 -0.005
0.48 0.34 -0.005
0.5 0.34 -0.005
0.0 0.36 -0.005
0.02 0.36 -0.005
0.04 0.36 -0.005
0.06 0.36 -0.005
0.08 0.36 -0.005
0.1 0.36 -0.005
0.12 0.36 -0.005
0.14 0.36 -0.005
0.16 0.36 -0.005
0.18 0.36 -0.005
0.2 0.36 -0.005
0.22 0.36 -0.005
0.24 0.36 -0.005
0.26 0.36 -0.005
0.28 0.36 -0.005
0.3 0.36 -0.005
0.32 0.36 -0.005
0.34 0.36 -0.005
0.36 0.36 -0.005
0.38 0.36 -0.005
0.4 0.36 -0.005
0.42 0.36 -0.005
0.44 0.36 -0.005
0.46 0.36 -0.005
0.48 0.36 -0.005
0.5 0.36 -0.005
0.0 0.38 -0.005
0.02 0.38 -0.005
0.04 0.38 -0.005
0.06 0.38 -0.005
0.08 0.38 -0.005
0.1 0.38 -0.005
0.12 0.38 -0.005
0.14 0.38 -0.005
0.16 0.38 -0.005
0.18 0.38 -0.005
0.2 0.38 -0.005
0.22 0.38 -0.005
0.24 0.38 -0.005
0.26 0.38 -0.005
0.28 0.38 -0.005
0.3 0.38 -0.005
0.32 0.38 -0.005
0.34 0.38 -0.005
0.36 0.38 -0.005
0.38 0.38 -0.005
0.4 0.38 -0.005
0.42 0.38 -0.005
0.44 0.38 -0.005
0.46 0.38 -0.005
0.48 0.38 -0.005
0.5 0.38 -0.005
0.0 0.4 -0.005
0.02 0.4 -0.005
0.04 0.4 -0.005
0.06 0.4 -0.005
0.08 0.4 -0.005
0.1 0.4 -0.005
0.12 0.4 -0.005
0.14 0.4 -0.005
0.16 0.4 -0.005
0.18 0.4 -0.005
0.2 0.4 -0.005
0.22 0.4 -0.005
0.24 0.4 -0.005
0.26 0.4 -0.005
0.28 0.4 -0.005
0.3 0.4 -0.005
0.32 0.4 -0.005
0.34 0.4 -0.005
0.36 0.4 -0.005
0.38 0.4 -0.005
0.4 0.4 -0.005
0.42 0.4 -0.005
0.44 0.4 -0.005
0.46 0.4 -0.005
0.48 0.4 -0.005
0.5 0.4 -0.005
0.0 0.42 -0.005
0.02 0.42 -0.005
0.04 0.42 -0.005
0.06 0.42 -0.005
0.08 0.42 -0.005
0.1 0.42 -0.005
0.12 0.42 -0.005
0.14 0.42 -0.005
0.16 0.42 -0.005
0.18 0.42 -0.005
0.2 0.42 -0.005
0.22 0.42 -0.005
0.24 0.42 -0.005
0.26 0.42 -0.005
0.28 0.42 -0.005
0.3 0.42 -0.005
0.32 0.42 -0.005
0.34 0.42 -0.005
0.36 0.42 -0.005
0.38 0.42 -0.005
0.4 0.42 -0.005
0.42 0.42 -0.005
0.44 0.42 -0.005
0.46 0.42 -0.005
0.48 0.42 -0.005
0.5 0.42 -0.005
0.0 0.44 -0.005
0.02 0.44 -0.005
0.04 0.44 -0.005
0.06 0.44 -0.005
0.08 0.44 -0.005
0.1 0.44 -0.005
0.12 0.44 -0.005
0.14 0.44 -0.005
0.16 0.44 -0.005
0.18 0.44 -0.005
0.2 0.44 -0.005
0.22 0.44 -0.005
0.24 0.44 -0.005
0.26 0.44 -0.005
0.28 0.44 -0.005
0.3 0.44 -0.005
0.32 0.44 -0.005
0.34 0.44 -0.005
0.36 0.44 -0.005
0.38 0.44 -0.005
0.4 0.44 -0.005
0.42 0.44 -0.005
0.44 0.44 -0.005
0.46 0.44 -0.005
0.48 0.44 -0.005
0.5 0.44 -0.005
[...]
CELL_DATA 3750
SCALARS P float 1
LOOKUP_TABLE default
99999.99633274718
100000.00635932814
99999.99636859454
99999.98973422612
100000.0062559202
99999.99665134563
100000.01735532926
99999.98985743966
100000.00572154029
99999.99702177747
99999.97146123304
100000.01711284253
99999.99072529568
100000.00501646198
99999.99745618863
100000.04774304775
99999.97179838466
100000.01556738057
99999.99186285789
100000.00420021015
99999.99791089015
99999.92087790479
100000.04720831795
99999.97441988811
100000.01354345174
99999.99317923057
100000.00336301839
99999.9983491205
100000.1318944193
99999.9215786393
100000.04262502973
99999.97783870953
100000.01121775144
99999.99452675485
100000.00257770225
99999.998743358
99999.78076932163
100000.1310989083
99999.92950552332
100000.03666590621
99999.98174946765
100000.00886221239
99999.99578892098
100000.00189392336
99999.99907751479
100000.36505052986
99999.78114801117
100000.11723436293
99999.93976328148
100000.02989179314
99999.98567641659
100000.00668675707
99999.99688747132
100000.00133569076
99999.99934613112
99999.39268881593
100000.36658462445
99999.80544046003
100000.09938702776
99999.95134568693
100000.02315866444
99999.98926493818
100000.0048261996
99999.99778554999
100000.00090536338
99999.99955194118
100001.01073225956
99999.38521584099
100000.32369341588
99999.83648837202
100000.07939001931
99999.9627244572
100000.01708432705
99999.99229850763
100000.00333695376
99999.99848046336
100000.0005904917
99999.99970282997
99998.31842905143
100001.03407375165
99999.46145753331
100000.26936807146
99999.87095452231
100000.05999075086
99999.9728430117
100000.01202644853
99999.99469821076
100000.0022131196
99999.99899240486
100000.00037093511
99999.99980902104
100002.79814477151
99998.25613412063
100000.89735916906
99999.55688847351
100000.20972129506
99999.90390144358
100000.04300233081
99999.9811319572
100000.0080941746
99999.9964891844
100000.00140927821
99999.99935316482
100000.00022459296
99999.99988095059
99995.34180552344
100002.95066561061
99998.50360129616
100000.72878252553
99999.66025541365
100000.15362984865
99999.93224779677
100000.02932461863
99999.98746406451
100000.00521679009
99999.99775825506
100000.00086215814
99999.9995972836
100000.00013113285
99999.99992794864
100007.76640854542
99994.99053651484
100002.49823382567
99998.80311472913
100000.54920330661
99999.75564031106
100000.1062903113
99999.95462263683
100000.01907212418
99999.9920140025
100000.00322358124
99999.99861638542
100000.00050678497
99999.99975642639
100000.00007384286
99999.99995762542
99987.00926732345
100008.53367539625
99995.82570159117
100001.9626823037
99999.11564250487
100000.38700695067
99999.83439976841
100000.06970628582
99999.97103919435
100000.0118547988
99999.99510920951
100000.00191091324
99999.99917248421
100000.00028607306
99999.99985665684
100000.00004009432
99999.99997576456
100021.87050833523
99985.42074447556
100006.97922984796
99996.7896719539
100001.4179880981
99999.39106262656
100000.2562983381
99999.89382741446
100000.04346655325
99999.9823371159
100000.00705315049
99999.99711290795
100000.00108654705
99999.9995191609
100000.00015485697
99999.99991779536
100000.00002097532
99999.99998651123
99962.75867767178
100024.94588326725
99988.32908815396
100005.23268975387
99997.73967954218
100000.9512385442
99999.60700095948
100000.1602188533
99999.93537532416
100000.0258365122
99999.98967878986
100000.00402006942
99999.99835254351
100000.00059189781
99999.9997277983
100000.00008016833
99999.99995399448
100000.00001055759
99999.99999268985
100064.67346772694
99957.3400996762
100019.50127752847
99991.51302046236
100003.57644334149
99998.5281133139
100000.59640904506
99999.76114574085
100000.0948821499
99999.96254596223
100000.01466632832
99999.99420654714
100000.00219489093
99999.99908828932
100000.00030806419
99999.99984942518
100000.00003950104
99999.99997484022
100000.0000051006
99999.99999614056
99884.06084102411
100072.59651341882
99967.46464101662
100013.667578461
99994.3955853593
100002.25106551207
99999.10695421975
100000.35123352759
99999.86276632472
100000.05337967983
99999.97927883225
100000.00795977625
99999.99686747788
100000.001146308
99999.99950874946
100000.00015237839
99999.99991834293
100000.00001836848
99999.99998653702
100000.00000235597
99999.99999801409
100219.56270560724
99877.47698334805
100054.08227194962
99978.19546965737
100008.67017167395
99996.60856420768
100001.3156561182
99999.49254241305
100000.19504931373
99999.92524078833
100000.02858737287
99999.98903155599
100000.00413059976
99999.9983628859
100000.00057059879
99999.99974100442
100000.00007091853
99999.99995643721
100000.00000793612
99999.9999929428
100000.00000103384
99999.9999990038
99538.62705815773
100203.7288345004
99910.38390584034
100034.31508609874
99986.81038981272
100005.01099350005
99998.10180792096
100000.71771742946
99999.72887851135
100000.10242656963
99999.9612974165
100000.0145914136
99999.99443168374
100000.0020465416
99999.99916918471
100000.00026868319
99999.99986556641
100000.000030451
99999.9999770562
100000.00000308413
99999.99999637215
100000.00000042636
99999.99999951264
101183.81670034144
99659.01202463228
100147.71170456131
99946.89496942404
100019.6015192025
99992.78359977226
100002.66582892423
99999.01248511497
100000.36683385793
99999.86344065565
100000.0509566248
99999.98092522837
100000.00709877705
99999.99728070386
100000.00096406702
99999.99958780539
100000.00011785782
99999.99993078483
100000.00001154107
99999.99998802882
100000.00000099148
99999.99999816933
100000.00000016177
99999.99999976746
95614.72922622875
100604.33044476135
99754.87156748927
100080.15817146048
99971.78179650489
100010.02928570699
99996.38874671125
100001.31111829187
99999.52086785785
100000.17605485425
99999.93505201589
100000.024035688
99999.99103594547
100000.00328633143
99999.99871659538
100000.00042771582
99999.99979807422
100000.00004654251
99999.99996435262
100000.00000338236
99999.9999937935
100000.00000018199
99999.99999909241
100000.00000005413
99999.99999989179
98638.74439892732
128625.36307688827
100408.95903323562
99882.9263802073
100038.6588621876
99986.75695303248
100004.65006039839
99998.34200157692
100000.59760021111
99999.78289871424
100000.07940060877
99999.97081457135
100000.01074367386
99999.99597527058
100000.00144056436
99999.99940983811
100000.00017494272
99999.99990095505
100000.00001506004
99999.99998148228
100000.0000002656
99999.99999679516
99999.9999999244
99999.99999955777
100000.00000001404
99999.99999995084
99354.45075007757
103341.69632438786
156262.57952433688
100157.64584179064
99951.41267983125
100016.09008064179
99994.4532821434
100001.95448413657
99999.3013446941
100000.25234858123
99999.90818496134
100000.0336220978
99999.98761088266
100000.00453867356
99999.99826693346
100000.00059074657
99999.99973173525
100000.00006249831
99999.99995050477
100000.000002474
99999.99999023443
99999.99999933303
99999.99999834965
99999.99999987928
99999.99999978785
100000.0000000012
99999.99999997826
99853.27744843496
100321.01120180779
113952.95748171295
174650.40157231793
100049.10453880734
99983.38556549109
100005.79626438396
99997.93967126042
100000.74141278106
99999.73087760419
100000.09838653437
99999.96386215904
100000.01332673077
99999.99503434703
100000.00179938728
99999.99927789572
100000.00021987829
99999.99987652087
100000.00001612364
99999.99997436182
99999.99999827499
99999.9999947557
99999.99999924058
99999.9999991522
99999.99999990093
99999.99999990004
99999.99999999811
99999.9999999907
99988.34248421266
99806.83983359365
105123.73071253541
128387.249846798
183458.63534513625
100010.46063420003
99995.50493663717
100001.75497201657
99999.3339757821
100000.25041985785
99999.9061964101
100000.03513893054
99999.9868399555
100000.00491076421
99999.99811897123
100000.00065762267
99999.99970280589
100000.00006786361
99999.99994048347
99999.99999917329
99999.99998608185
99999.999997465
99999.99999713567
99999.99999940404
99999.99999956613
99999.99999993359
99999.99999995355
99999.99999999804
99999.99999999619
100009.29699654209
99889.20864051663
101016.50134905784
114466.18311058012
143335.8599746185
185119.86758486787
100000.45390643492
99999.21893860144
100000.40849452262
99999.8217087279
100000.07298940881
99999.97104705272
100000.01131532554
99999.99560994815
100000.00165669351
99999.99932103582
100000.00021053189
99999.99987394697
100000.0000107154
99999.9999689557
99999.99999443714
99999.99999208402
99999.99999781589
99999.99999841645
99999.9999995969
99999.99999977907
99999.99999996011
99999.99999997887
99999.99999999868
99999.9999999984
100006.00019695667
99968.23437492091
100102.07004837168
104729.95226820394
127389.45549100587
155868.12058894604
182930.67098295756
99999.12097879889
100000.0459382763
100000.04727413075
99999.96630783858
100000.0169285082
99999.9924623739
100000.00317540922
99999.99867790306
100000.00049132074
99999.99975884521
100000.00004819737
99999.9999411225
99999.9999923341
99999.99998224742
99999.9999942536
99999.9999953348
99999.99999841876
99999.99999911981
99999.9999997501
99999.99999988836
99999.99999997772
99999.99999999057
99999.99999999926
99999.99999999939
100002.05270296369
99996.00240229574
99967.02008972813
101306.06696014742
111885.33152463948
141453.76793039675
164551.43675893254
179423.8679719631
99999.48305867426
100000.10907463274
99999.9832557796
99999.99944522046
100000.00222964019
99999.99856443412
100000.00070775954
99999.99964450419
100000.00011002264
99999.99990772169
99999.99999555724
99999.9999679377
99999.99998862702
99999.99998904788
99999.99999542686
99999.99999719605
99999.99999895504
99999.99999951167
99999.99999985386
99999.99999994408
99999.99999998814
99999.99999999577
99999.99999999967
99999.99999999985
100000.38967670934
100001.3930466918
99977.67980619123
100266.87921122361
104406.46936565402
122404.11165987728
153951.52971580648
169555.65289467768
176051.76453027906
99999.82379600542
100000.05397551222
99999.9858031443
100000.00319598164
99999.9995245991
99999.99993575597
100000.00007586787
99999.99990926235
99999.99999974715
99999.99995577497
99999.99998229822
99999.99997975859
99999.99998980535
99999.99999294059
99999.99999674514
99999.9999983069
99999.9999993489
99999.99999973127
99999.99999991829
99999.99999997245
99999.99999999403
99999.99999999817
99999.9999999997
99999.99999999996
99999.96926324497
100001.12488328693
99993.06654720138
100029.1318412352
101351.64290792926
110251.27054718196
134866.6478581345
163192.61203525608
171860.66004992256
173411.08477000945
99999.96522417795
100000.01692270598
99999.99410959745
100000.00180706379
99999.99950512637
100000.00009706861
99999.99995777747
99999.9999674759
99999.99997457518
99999.99997182125
99999.9999818991
99999.99998604831
99999.99999214885
99999.99999538485
99999.99999782743
99999.99999898447
99999.99999961138
99999.99999985384
99999.9999999561
99999.99999998657
99999.99999999708
99999.99999999919
99999.99999999983
100000.00000000001
99999.93898763227
100000.41292890249
99998.96333615569
99993.59028204026
100350.07145418244
103915.32765298735
119104.7659779717
147088.1662471537
168891.88026459824
172526.82259930353
171601.36623288813
100000.00191025535
100000.00297583036
99999.99838649441
100000.00063613999
99999.99977135641
100000.00004644888
99999.9999538568
99999.99997576565
99999.99997303681
99999.99997877427
99999.99998499845
99999.99999010398
99999.99999438183
99999.99999699919
99999.9999986119
99999.99999939933
99999.99999977594
99999.9999999218
99999.99999997714
99999.9999999935
99999.99999999862
99999.99999999968
100000.00000000004
100000.0000000001
99999.97154469862
100000.08374045423
100000.21770686212
99995.02606239752
100071.02717542047
101306.5549175801
108706.7403893677
130204.06704926913
157188.41010277407
171721.82729820587
172354.09234047373
170491.21064512208
100000.00513648774
99999.9996450169
99999.99979296137
100000.00014069631
99999.99991748563
100000.00000107405
99999.99996415926
99999.99997646677
99999.99997688936
99999.99998334817
99999.99998853602
99999.99999301873
99999.99999615851
99999.99999808012
99999.99999914273
99999.99999965126
99999.99999987462
99999.99999995892
99999.9999999885
99999.999999997
99999.99999999949
99999.9999999999
99999.99999999999
99999.99999999997
99999.99220795119
99999.995803928
100000.2171248578
99998.36643814674
100008.1738667202
100382.40014078325
103445.95188350324
116161.22670022208
141895.34527638034
164301.66941755064
172653.9971561503
171833.5982301735
169867.52303167718
100000.0025413951
99999.99945773403
100000.00007030614
99999.99999646418
99999.99996746868
99999.99998154637
99999.99997157605
99999.99997811476
99999.99998139034
99999.99998713422
99999.99999162258
99999.9999951734
99999.99999746063
99999.99999879742
99999.99999948543
99999.99999980154
99999.9999999317
99999.99999997891
99999.99999999448
99999.99999999868
99999.99999999972
99999.99999999994
100000.0000000001
100000.00000000003
99999.99928435142
99999.98810574524
100000.08418082165
99999.7196032361
99998.6175400605
100096.37378489033
101213.7777713549
107416.69600078622
125967.51316088556
152366.68319901387
168560.73560956022
172532.50211197493
171217.25770129354
169513.57331961364
100000.0007531657
99999.99974716033
100000.0000557234
99999.99997164954
99999.99997830697
99999.99997655954
99999.99997635979
99999.99998108768
99999.99998549132
99999.99999035888
99999.99999407481
99999.99999674637
99999.99999836856
99999.99999926394
99999.99999969911
99999.99999988954
99999.9999999637
99999.99999998933
99999.99999999731
99999.99999999953
100000.0
100000.0
100000.00000000003
100000.00000000003
100000.00057115903
99999.99428793495
100000.0181258838
100000.0299509969
99998.79614511906
100019.38697838536
100385.6959836504
103004.84595298323
113722.3484899417
136949.25092818527
160423.36814987683
170640.87112291742
171927.52683109368
170603.32061687822
169251.75257149249
100000.00009602371
99999.99992479107
100000.00001286274
99999.99997367161
99999.99997903703
99999.9999773607
99999.9999801697
99999.9999845618
99999.99998899855
99999.99999300456
99999.99999592661
99999.99999786382
99999.9999989788
99999.99999955992
99999.99999982808
99999.99999993983
99999.99999998116
99999.99999999476
99999.99999999879
99999.99999999977
100000.00000000007
100000.00000000003
100000.00000000003
100000.00000000003
100000.00040024465
99999.99841459896
99999.9996436932
100000.04335869353
99999.5855010603
100002.28517781082
100109.77669999072
101104.29225660012
106314.15845418362
122349.03813420427
147488.78338476
165767.69670553846
171304.70616158104
171156.32454123453
170004.46202097298
168968.40653437
99999.99995481299
99999.99998442743
99999.99998983504
99999.99997752783
99999.99997924526
99999.99998005995
99999.9999837001
99999.99998793077
99999.99999188924
99999.99999507736
99999.9999972735
99999.99999863333
99999.99999937632
99999.999999743
99999.99999990407
99999.99999996793
99999.9999999905
99999.99999999748
99999.99999999949
99999.99999999999
100000.00000000007
100000.00000000003
100000.00000000003
100000.00000000003
100000.00014869013
99999.99984564508
99999.9977301108
100000.01801082761
99999.91995526238
99999.66627084489
100027.18245550235
100372.36109548618
102610.25847321237
111657.98145393185
132520.23057645082
156222.8036199218
168774.97773016104
171160.15509959802
170359.2227062042
169400.18774503007
168582.65723946333
99999.99995669724
99999.99999355334
99999.99998196708
99999.99997994001
99999.99998072998
99999.99998324997
99999.99998701666
99999.9999908936
99999.9999941878
99999.99999663405
99999.99999822154
99999.99999914732
99999.99999962807
99999.99999985333
99999.99999994774
99999.99999998341
99999.99999999534
99999.99999999882
99999.99999999978
100000.00000000003
100000.00000000003
100000.00000000003
100000.00000000003
100000.00000000007
100000.00003136584
100000.00010427882
99999.99888220895
100000.00416809418
100000.00211947587
99999.68628224848
100005.41344889549
100115.05675488754
100991.88247556875
105382.18819813557
119210.21866751908
142872.13405896284
162506.55877222016
170090.06027333628
170602.14228110164
169576.96128641773
168757.73051275813
168069.977529564
99999.99997383535
99999.99999011833
99999.99998077075
99999.9999818361
99999.99998316681
99999.99998642327
99999.99998999872
99999.99999334202
99999.99999594995
99999.99999776008
99999.99999886868
99999.99999948085
99999.99999978322
99999.99999991822
99999.99999997218
99999.99999999153
99999.99999999767
99999.99999999946
99999.99999999988
99999.99999999996
100000.00000000003
100000.00000000003
100000.00000000003
100000.00000000003
99999.99999651623
100000.00006690632
99999.999701997
100000.00004971947
100000.00897279436
99999.88778798144
100000.63725852026
100032.1160142371
100350.27627721634
102262.7331339177
109917.65551002136
128513.18855036433
152008.19003247813
166408.84134139013
170325.177567117
169851.59256588563
168800.64863764102
168054.41068219818
167423.02911951512
99999.99998228197
99999.99998672614
99999.9999819323
99999.99998391725
99999.9999859872
99999.99998935091
99999.99999254072
99999.99999527252
99999.99999725373
99999.99999854754
99999.9999992977
99999.99999969118
99999.9999998764
99999.99999995524
99999.99999998542
99999.99999999578
99999.999999999
99999.99999999984
100000.00000000007
99999.99999999997
100000.00000000003
100000.00000000003
100000.00000000003
100000.00000000003
99999.99999019636
100000.00001482465
99999.99998939649
99999.99952457836
100000.00415157755
99999.9760964261
99999.90882687649
100007.83755784902
100115.01559953984
100884.12309054637
104594.18907189576
116500.56828922791
138476.5412610555
159032.94655259667
168412.0248831314
169935.43665117744
169014.04266685818
168008.23601156194
167278.25528436177
166658.30785596167
99999.99998468612
99999.99998553062
99999.9999839078
99999.99998627754
99999.99998878663
99999.99999190794
99999.99999460409
99999.99999673542
99999.99999818619
99999.99999908132
99999.99999957421
99999.99999982047
99999.99999993113
99999.9999999761
99999.99999999258
99999.99999999804
99999.99999999959
99999.99999999997
100000.0
100000.00000000003
100000.00000000001
100000.00000000003
100000.00000000003
100000.00000000003
99999.99998977278
99999.99999150021
100000.00003741916
99999.99973055822
100000.00112149597
99999.99907604817
99999.91275342478
100001.54155300271
100034.84993047756
100324.13026834241
101960.60615890559
108447.17477846351
124914.57394051093
147765.82279295777
163733.47842694563
169094.3249139324
169210.83218857885
168131.86360654596
167180.3682916435
166430.78491621427
165799.12975004976
99999.9999853593
99999.99998599465
99999.99998619549
99999.99998873955
99999.99999133174
99999.99999403644
99999.99999620779
99999.99999780516
99999.99999883222
99999.99999943274
99999.99999974777
99999.99999989786
99999.99999996237
99999.99999998749
99999.99999999629
99999.99999999903
99999.99999999985
100000.00000000015
100000.00000000003
100000.00000000007
100000.00000000003
100000.00000000003
100000.00000000003
100000.00000000003
99999.99998968102
99999.99998571617
100000.00002388236
99999.99990123561
100000.00013830078
100000.00176064334
99999.96815821597
100000.17725400861
100009.57696185232
100111.65230728668
100784.47429665043
103928.2485481381
114158.85750952267
134332.34489410324
155332.64775279685
166406.82071480143
168946.75551328025
168317.32461439588
167218.37693153927
166308.1891256569
165523.19563356283
164879.11252936054
99999.99998619748
99999.99998737988
99999.99998856429
99999.99999109434
99999.9999935087
99999.99999573255
99999.99999740717
99999.99999856195
99999.99999926629
99999.99999965786
99999.99999985388
99999.99999994319
99999.99999997995
99999.99999999357
99999.99999999822
99999.99999999959
100000.0
100000.0
100000.00000000007
100000.00000000003
100000.00000000003
100000.00000000003
100000.00000000003
100000.00000000003
99999.99998962284
99999.99998601805
100000.0000077709
99999.99996867593
99999.99996939096
100000.00086833592
99999.99292973832
99999.97182306828
100002.30586681716
100035.97048819771
100296.74760376774
101699.42402824636
107201.60394699314