# vtk DataFile Version 2.0
JuliaCFD
ASCII
DATASET UNSTRUCTURED_GRID

POINTS 7752 float
0.0 0.0 -0.005
0.02 0.0 -0.005
0.04 0.0 -0.005
0.06 0.0 -0.005
0.08 0.0 -0.005
0.1 0.0 -0.005
0.12 0.0 -0.005
0.14 0.0 -0.005
0.16 0.0 -0.005
0.18 0.0 -0.005
0.2 0.0 -0.005
0.22 0.0 -0.005
0.24 0.0 -0.005
0.26 0.0 -0.005
0.28 0.0 -0.005
0.3 0.0 -0.005
0.32 0.0 -0.005
0.34 0.0 -0.005
0.36 0.0 -0.005
0.38 0.0 -0.005
0.4 0.0 -0.005
0.42 0.0 -0.005
0.44 0.0 -0.005
0.46 0.0 -0.005
0.48 0.0 -0.005
0.5 0.0 -0.005
0.0 0.02 -0.005
0.02 0.02 -0.005
0.04 0.02 -0.005
0.06 0.02 -0.005
0.08 0.02 -0.005
0.1 0.02 -0.005
0.12 0.02 -0.005
0.14 0.02 -0.005
0.16 0.02 -0.005
0.18 0.02 -0.005
0.2 0.02 -0.005
0.22 0.02 -0.005
0.24 0.02 -0.005
0.26 0.02 -0.005
0.28 0.02 -0.005
0.3 0.02 -0.005
0.32 0.02 -0.005
0.34 0.02 -0.005
0.36 0.02 -0.005
0.38 0.02 -0.005
0.4 0.02 -0.005
0.42 0.02 -0.005
0.44 0.02 -0.005
0.46 0.02 -0.005
0.48 0.02 -0.005
0.5 0.02 -0.005
0.0 0.04 -0.005
0.02 0.04 -0.005
0.04 0.04 -0.005
0.06 0.04 -0.005
0.08 0.04 -0.005
0.1 0.04 -0.005
0.12 0.04 -0.005
0.14 0.04 -0.005
0.16 0.04 -0.005
0.18 0.04 -0.005
0.2 0.04 -0.005
0.22 0.04 -0.005
0.24 0.04 -0.005
0.26 0.04 -0.005
0.28 0.04 -0.005
0.3 0.04 -0.005
0.32 0.04 -0.005
0.34 0.04 -0.005
0.36 0.04 -0.005
0.38 0.04 -0.005
0.4 0.04 -0.005
0.42 0.04 -0.005
0.44 0.04 -0.005
0.46 0.04 -0.005
0.48 0.04 -0.005
0.5 0.04 -0.005
0.0 0.06 -0.005
0.02 0.06 -0.005
0.04 0.06 -0.005
0.06 0.06 -0.005
0.08 0.06 -0.005
0.1 0.06 -0.005
0.12 0.06 -0.005
0.14 0.06 -0.005
0.16 0.06 -0.005
0.18 0.06 -0.005
0.2 0.06 -0.005
0.22 0.06 -0.005
0.24 0.06 -0.005
0.26 0.06 -0.005
0.28 0.06 -0.005
0.3 0.06 -0.005
0.32 0.06 -0.005
0.34 0.06 -0.005
0.36 0.06 -0.005
0.38 0.06 -0.005
0.4 0.06 -0.005
0.42 0.06 -0.005
0.44 0.06 -0.005
0.46 0.06 -0.005
0.48 0.06 -0.005
0.5 0.06 -0.005
0.0 0.08 -0.005
0.02 0.08 -0.005
0.04 0.08 -0.005
0.06 0.08 -0.005
0.08 0.08 -0.005
0.1 0.08 -0.005
0.12 0.08 -0.005
0.14 0.08 -0.005
0.16 0.08 -0.005
0.18 0.08 -0.005
0.2 0.08 -0.005
0.22 0.08 -0.005
0.24 0.08 -0.005
0.26 0.08 -0.005
0.28 0.08 -0.005
0.3 0.08 -0.005
0.32 0.08 -0.005
0.34 0.08 -0.005
0.36 0.08 -0.005
0.38 0.08 -0.005
0.4 0.08 -0.005
0.42 0.08 -0.005
0.44 0.08 -0.005
0.46 0.08 -0.005
0.48 0.08 -0.005
0.5 0.08 -0.005
0.0 0.1 -0.005
0.02 0.1 -0.005
0.04 0.1 -0.005
0.06 0.1 -0.005
0.08 0.1 -0.005
0.1 0.1 -0.005
0.12 0.1 -0.005
0.14 0.1 -0.005
0.16 0.1 -0.005
0.18 0.1 -0.005
0.2 0.1 -0.005
0.22 0.1 -0.005
0.24 0.1 -0.005
0.26 0.1 -0.005
0.28 0.1 -0.005
0.3 0.1 -0.005
0.32 0.1 -0.005
0.34 0.1 -0.005
0.36 0.1 -0.005
0.38 0.1 -0.005
0.4 0.1 -0.005
0.42 0.1 -0.005
0.44 0.1 -0.005
0.46 0.1 -0.005
0.48 0.1 -0.005
0.5 0.1 -0.005
0.0 0.12 -0.005
0.02 0.12 -0.005
0.04 0.12 -0.005
0.06 0.12 -0.005
0.08 0.12 -0.005
0.1 0.12 -0.005
0.12 0.12 -0.005
0.14 0.12 -0.005
0.16 0.12 -0.005
0.18 0.12 -0.005
0.2 0.12 -0.005
0.22 0.12 -0.005
0.24 0.12 -0.005
0.26 0.12 -0.005
0.28 0.12 -0.005
0.3 0.12 -0.005
0.32 0.12 -0.005
0.34 0.12 -0.005
0.36 0.12 -0.005
0.38 0.12 -0.005
0.4 0.12 -0.005
0.42 0.12 -0.005
0.44 0.12 -0.005
0.46 0.12 -0.005
0.48 0.12 -0.005
0.5 0.12 -0.005
0.0 0.14 -0.005
0.02 0.14 -0.005
0.04 0.14 -0.005
0.06 0.14 -0.005
0.08 0.14 -0.005
0.1 0.14 -0.005
0.12 0.14 -0.005
0.14 0.14 -0.005
0.16 0.14 -0.005
0.18 0.14 -0.005
0.2 0.14 -0.005
0.22 0.14 -0.005
0.24 0.14 -0.005
0.26 0.14 -0.005
0.28 0.14 -0.005
0.3 0.14 -0.005
0.32 0.14 -0.005
0.34 0.14 -0.005
0.36 0.14 -0.005
0.38 0.14 -0.005
0.4 0.14 -0.005
0.42 0.14 -0.005
0.44 0.14 -0.005
0.46 0.14 -0.005
0.48 0.14 -0.005
0.5 0.14 -0.005
0.0 0.16 -0.005
0.02 0.16 -0.005
0.04 0.16 -0.005
0.06 0.16 -0.005
0.08 0.16 -0.005
0.1 0.16 -0.005
0.12 0.16 -0.005
0.14 0.16 -0.005
0.16 0.16 -0.005
0.18 0.16 -0.005
0.2 0.16 -0.005
0.22 0.16 -0.005
0.24 0.16 -0.005
0.26 0.16 -0.005
0.28 0.16 -0.005
0.3 0.16 -0.005
0.32 0.16 -0.005
0.34 0.16 -0.005
0.36 0.16 -0.005
0.38 0.16 -0.005
0.4 0.16 -0.005
0.42 0.16 -0.005
0.44 0.16 -0.005
0.46 0.16 -0.005
0.48 0.16 -0.005
0.5 0.16 -0.005
0.0 0.18 -0.005
0.02 0.18 -0.005
0.04 0.18 -0.005
0.06 0.18 -0.005
0.08 0.18 -0.005
0.1 0.18 -0.005
0.12 0.18 -0.005
0.14 0.18 -0.005
0.16 0.18 -0.005
0.18 0.18 -0.005
0.2 0.18 -0.005
0.22 0.18 -0.005
0.24 0.18 -0.005
0.26 0.18 -0.005
0.28 0.18 -0.005
0.3 0.18 -0.005
0.32 0.18 -0.005
0.34 0.18 -0.005
0.36 0.18 -0.005
0.38 0.18 -0.005
0.4 0.18 -0.005
0.42 0.18 -0.005
0.44 0.18 -0.005
0.46 0.18 -0.005
0.48 0.18 -0.005
0.5 0.18 -0.005
0.0 0.2 -0.005
0.02 0.2 -0.005
0.04 0.2 -0.005
0.06 0.2 -0.005
0.08 0.2 -0.005
0.1 0.2 -0.005
0.12 0.2 -0.005
0.14 0.2 -0.005
0.16 0.2 -0.005
0.18 0.2 -0.005
0.2 0.2 -0.005
0.22 0.2 -0.005
0.24 0.2 -0.005
0.26 0.2 -0.005
0.28 0.2 -0.005
0.3 0.2 -0.005
0.32 0.2 -0.005
0.34 0.2 -0.005
0.36 0.2 -0.005
0.38 0.2 -0.005
0.4 0.2 -0.005
0.42 0.2 -0.005
0.44 0.2 -0.005
0.46 0.2 -0.005
0.48 0.2 -0.005
0.5 0.2 -0.005
0.0 0.22 -0.005
0.02 0.22 -0.005
0.04 0.22 -0.005
0.06 0.22 -0.005
0.08 0.22 -0.005
0.1 0.22 -0.005
0.12 0.22 -0.005
0.14 0.22 -0.005
0.16 0.22 -0.005
0.18 0.22 -0.005
0.2 0.22 -0.005
0.22 0.22 -0.005
0.24 0.22 -0.005
0.26 0.22 -0.005
0.28 0.22 -0.005
0.3 0.22 -0.005
0.32 0.22 -0.005
0.34 0.22 -0.005
0.36 0.22 -0.005
0.38 0.22 -0.005
0.4 0.22 -0.005
0.42 0.22 -0.005
0.44 0.22 -0.005
0.46 0.22 -0.005
0.48 0.22 -0.005
0.5 0.22 -0.005
0.0 0.24 -0.005
0.02 0.24 -0.005
0.04 0.24 -0.005
0.06 0.24 -0.005
0.08 0.24 -0.005
0.1 0.24 -0.005
0.12 0.24 -0.005
0.14 0.24 -0.005
0.16 0.24 -0.005
0.18 0.24 -0.005
0.2 0.24 -0.005
0.22 0.24 -0.005
0.24 0.24 -0.005
0.26 0.24 -0.005
0.28 0.24 -0.005
0.3 0.24 -0.005
0.32 0.24 -0.005
0.34 0.24 -0.005
0.36 0.24 -0.005
0.38 0.24 -0.005
0.4 0.24 -0.005
0.42 0.24 -0.005
0.44 0.24 -0.005
0.46 0.24 -0.005
0.48 0.24 -0.005
0.5 0.24 -0.005
0.0 0.26 -0.005
0.02 0.26 -0.005
0.04 0.26 -0.005
0.06 0.26 -0.005
0.08 0.26 -0.005
0.1 0.26 -0.005
0.12 0.26 -0.005
0.14 0.26 -0.005
0.16 0.26 -0.005
0.18 0.26 -0.005
0.2 0.26 -0.005
0.22 0.26 -0.005
0.24 0.26 -0.005
0.26 0.26 -0.005
0.28 0.26 -0.005
0.3 0.26 -0.005
0.32 0.26 -0.005
0.34 0.26 -0.005
0.36 0.26 -0.005
0.38 0.26 -0.005
0.4 0.26 -0.005
0.42 0.26 -0.005
0.44 0.26 -0.005
0.46 0.26 -0.005
0.48 0.26 -0.005
0.5 0.26 -0.005
0.0 0.28 -0.005
0.02 0.28 -0.005
0.04 0.28 -0.005
0.06 0.28 -0.005
0.08 0.28 -0.005
0.1 0.28 -0.005
0.12 0.28 -0.005
0.14 0.28 -0.005
0.16 0.28 -0.005
0.18 0.28 -0.005
0.2 0.28 -0.005
0.22 0.28 -0.005
0.24 0.28 -0.005
0.26 0.28 -0.005
0.28 0.28 -0.005
0.3 0.28 -0.005
0.32 0.28 -0.005
0.34 0.28 -0.005
0.36 0.28 -0.005
0.38 0.28 -0.005
0.4 0.28 -0.005
0.42 0.28 -0.005
0.44 0.28 -0.005
0.46 0.28 -0.005
0.48 0.28 -0.005
0.5 0.28 -0.005
0.0 0.3 -0.005
0.02 0.3 -0.005
0.04 0.3 -0.005
0.06 0.3 -0.005
0.08 0.3 -0.005
0.1 0.3 -0.005
0.12 0.3 -0.005
0.14 0.3 -0.005
0.16 0.3 -0.005
0.18 0.3 -0.005
0.2 0.3 -0.005
0.22 0.3 -0.005
0.24 0.3 -0.005
0.26 0.3 -0.005
0.28 0.3 -0.005
0.3 0.3 -0.005
0.32 0.3 -0.005
0.34 0.3 -0.005
0.36 0.3 -0.005
0.38 0.3 -0.005
0.4 0.3 -0.005
0.42 0.3 -0.005
0.44 0.3 -0.005
0.46 0.3 -0.005
0.48 0.3 -0.005
0.5 0.3 -0.005
0.0 0.32 -0.005
0.02 0.32 -0.005
0.04 0.32 -0.005
0.06 0.32 -0.005
0.08 0.32 -0.005
0.1 0.32 -0.005
0.12 0.32 -0.005
0.14 0.32 -0.005
0.16 0.32 -0.005
0.18 0.32 -0.005
0.2 0.32 -0.005
0.22 0.32 -0.005
0.24 0.32 -0.005
0.26 0.32 -0.005
0.28 0.32 -0.005
0.3 0.32 -0.005
0.32 0.32 -0.005
0.34 0.32 -0.005
0.36 0.32 -0.005
0.38 0.32 -0.005
0.4 0.32 -0.005
0.42 0.32 -0.005
0.44 0.32 -0.005
0.46 0.32 -0.005
0.48 0.32 -0.005
0.5 0.32 -0.005
0.0 0.34 -0.005
0.02 0.34 -0.005
0.04 0.34 -0.005
0.06 0.34 -0.005
0.08 0.34 -0.005
0.1 0.34 -0.005
0.12 0.34 -0.005
0.14 0.34 -0.005
0.16 0.34 -0.005
0.18 0.34 -0.005
0.2 0.34 -0.005
0.22 0.34 -0.005
0.24 0.34 -0.005
0.26 0.34 -0.005
0.28 0.34 -0.005
0.3 0.34 -0.005
0.32 0.34 -0.005
0.34 0.34 -0.005
0.36 0.34 -0.005
0.38 0.34 -0.005
0.4 0.34 -0.005
0.42 0.34 -0.005
0.44 0.34 -0.005
0.46 0.34 -0.005
0.48 0.34 -0.005
0.5 0.34 -0.005
0.0 0.36 -0.005
0.02 0.36 -0.005
0.04 0.36 -0.005
0.06 0.36 -0.005
0.08 0.36 -0.005
0.1 0.36 -0.005
0.12 0.36 -0.005
0.14 0.36 -0.005
0.16 0.36 -0.005
0.18 0.36 -0.005
0.2 0.36 -0.005
0.22 0.36 -0.005
0.24 0.36 -0.005
0.26 0.36 -0.005
0.28 0.36 -0.005
0.3 0.36 -0.005
0.32 0.36 -0.005
0.34 0.36 -0.005
0.36 0.36 -0.005
0.38 0.36 -0.005
0.4 0.36 -0.005
0.42 0.36 -0.005
0.44 0.36 -0.005
0.46 0.36 -0.005
0.48 0.36 -0.005
0.5 0.36 -0.005
0.0 0.38 -0.005
0.02 0.38 -0.005
0.04 0.38 -0.005
0.06 0.38 -0.005
0.08 0.38 -0.005
0.1 0.38 -0.005
0.12 0.38 -0.005
0.14 0.38 -0.005
0.16 0.38 -0.005
0.18 0.38 -0.005
0.2 0.38 -0.005
0.22 0.38 -0.005
0.24 0.38 -0.005
0.26 0.38 -0.005
0.28 0.38 -0.005
0.3 0.38 -0.005
0.32 0.38 -0.005
0.34 0.38 -0.005
0.36 0.38 -0.005
0.38 0.38 -0.005
0.4 0.38 -0.005
0.42 0.38 -0.005
0.44 0.38 -0.005
0.46 0.38 -0.005
0.48 0.38 -0.005
0.5 0.38 -0.005
0.0 0.4 -0.005
0.02 0.4 -0.005
0.04 0.4 -0.005
0.06 0.4 -0.005
0.08 0.4 -0.005
0.1 0.4 -0.005
0.12 0.4 -0.005
0.14 0.4 -0.005
0.16 0.4 -0.005
0.18 0.4 -0.005
0.2 0.4 -0.005
0.22 0.4 -0.005
0.24 0.4 -0.005
0.26 0.4 -0.005
0.28 0.4 -0.005
0.3 0.4 -0.005
0.32 0.4 -0.005
0.34 0.4 -0.005
0.36 0.4 -0.005
0.38 0.4 -0.005
0.4 0.4 -0.005
0.42 0.4 -0.005
0.44 0.4 -0.005
0.46 0.4 -0.005
0.48 0.4 -0.005
0.5 0.4 -0.005
0.0 0.42 -0.005
0.02 0.42 -0.005
0.04 0.42 -0.005
0.06 0.42 -0.005
0.08 0.42 -0.005
0.1 0.42 -0.005
0.12 0.42 -0.005
0.14 0.42 -0.005
0.16 0.42 -0.005
0.18 0.42 -0.005
0.2 0.42 -0.005
0.22 0.42 -0.005
0.24 0.42 -0.005
0.26 0.42 -0.005
0.28 0.42 -0.005
0.3 0.42 -0.005
0.32 0.42 -0.005
0.34 0.42 -0.005
0.36 0.42 -0.005
0.38 0.42 -0.005
0.4 0.42 -0.005
0.42 0.42 -0.005
0.44 0.42 -0.005
0.46 0.42 -0.005
0.48 0.42 -0.005
0.5 0.42 -0.005
0.0 0.44 -0.005
0.02 0.44 -0.005
0.04 0.44 -0.005
0.06 0.44 -0.005
0.08 0.44 -0.005
0.1 0.44 -0.005
0.12 0.44 -0.005
0.14 0.44 -0.005
0.16 0.44 -0.005
0.18 0.44 -0.005
0.2 0.44 -0.005
0.22 0.44 -0.005
0.24 0.44 -0.005
0.26 0.44 -0.005
0.28 0.44 -0.005
0.3 0.44 -0.005
0.32 0.44 -0.005
0.34 0.44 -0.005
0.36 0.44 -0.005
0.38 0.44 -0.005
0.4 0.44 -0.005
0.42 0.44 -0.005
0.44 0.44 -0.005
0.46 0.44 -0.005
0.48 0.44 -0.005
0.5 0.44 -0.005
[...]
CELL_DATA 3750
SCALARS P float 1
LOOKUP_TABLE default
99999.9963327419
100000.00635933559
99999.99636858945
99999.98973421617
100000.00625592735
99999.99665134047
100000.01735534417
99999.98985742989
100000.0057215475
99999.99702177245
99999.97146121351
100000.01711285708
99999.99072528558
100000.00501646909
99999.99745618358
100000.04774309589
99999.97179836604
100000.01556739531
99999.99186284748
100000.00420021707
99999.99791088529
99999.92087795095
100000.04720836476
99999.97441986934
100000.01354346651
99999.99317922023
100000.00336302507
99999.99834911602
100000.13189475209
99999.92157868373
100000.04262507676
99999.97783869092
100000.01121776593
99999.9945267447
100000.00257770836
99999.9987433539
99999.78076992647
100000.13109922619
99999.9295055601
100000.03666595295
99999.98174944887
100000.00886222655
99999.99578891123
100000.00189392886
99999.99907751096
100000.36505204564
99999.78114859002
100000.11723466005
99999.93976330779
100000.02989183838
99999.98567639828
100000.00668677059
99999.99688746226
100000.0013356956
99999.99934612804
99999.39269123062
100000.36658607546
99999.80544097153
100000.09938729371
99999.95134570077
100000.02315870693
99999.98926492059
100000.00482621208
99999.99778554194
100000.00090536753
99999.9995519385
100001.01073655424
99999.38521817801
100000.32369474495
99999.8364887909
100000.07939024558
99999.9627244574
100000.01708436501
99999.9922984913
100000.00333696464
99999.9984804566
100000.00059049495
99999.99970282784
99998.3184349069
100001.03407791517
99999.46145962356
100000.26936922684
99999.87095483087
100000.05999093069
99999.97284299828
100000.01202648054
99999.994698196
100000.00221312886
99999.99899239931
100000.0003709377
99999.99980901935
100002.7981532769
99998.25613989352
100000.897363002
99999.55689022681
100000.20972223782
99999.90390163337
100000.04300245961
99999.9811319311
100000.00809419954
99999.99648917136
100000.00140928566
99999.99935316032
100000.00022459486
99999.9998809494
99995.34181572123
100002.95067401625
99998.50360653322
100000.72878588975
99999.66025676293
100000.15363055235
99999.93224786826
100000.02932469467
99999.98746402728
100000.00521680749
99999.99775824386
100000.00086216396
99999.99959728023
100000.00013113425
99999.9999279477
100007.76642133828
99994.9905468161
100002.49824168917
99998.80311923758
100000.5492060895
99999.75564122267
100000.1062907641
99999.95462259772
100000.01907214886
99999.99201395654
100000.00322359128
99999.99861637583
100000.0005067894
99999.99975642399
100000.0000738439
99999.99995762474
99987.0092812752
100008.53368837442
99995.82571108252
100001.96268939701
99999.11564612678
100000.38700907251
99999.83440023933
100000.06970649093
99999.97103905842
100000.01185477684
99999.99510915719
100000.00191091675
99999.99917247634
100000.000286076
99999.99985665503
100000.00004009494
99999.999975764
100021.87052374287
99985.42075895492
100006.97924228047
99996.78968036447
100001.41799419624
99999.3910652702
100000.25629975801
99999.8938274689
100000.04346652777
99999.98233690078
100000.00705308892
99999.99711285204
100000.00108654519
99999.99951915436
100000.00015485904
99999.99991779425
100000.00002097567
99999.99998651101
99962.75869372749
100024.94589955763
99988.32910167612
100005.23270141252
99997.73968661355
100000.95124346443
99999.60700259564
100000.16021956979
99999.9353750067
100000.02583628485
99999.98967851512
100000.00401997782
99999.99835248667
100000.00059189204
99999.99972779295
100000.00008016953
99999.9999539938
100000.00001055776
99999.99999268963
100064.67348298705
99957.34011656795
100019.50129364355
99991.51303277694
100003.57645389086
99998.52811887351
100000.59641265828
99999.76114639633
100000.09488220037
99999.9625453315
100000.01466593659
99999.9942062327
100000.00219477889
99999.99908823374
100000.00030805597
99999.99984942077
100000.00003950157
99999.99997483967
100000.00000510075
99999.99999614037
99884.0608577836
100072.59653117062
99967.4646568636
100013.66759434894
99994.39559617016
100002.25107462563
99999.10695817576
100000.351235771
99999.86276607167
100000.05337913502
99999.97927795522
100000.00795926273
99999.99686714333
100000.00114618539
99999.99950869707
100000.00015236906
99999.99991833947
100000.00001836864
99999.99998653667
100000.00000235607
99999.99999801413
100219.56271753518
99877.47699972792
100054.08229030886
99978.19548433238
100008.67018692482
99996.60857330206
100001.31566349741
99999.49254474622
100000.19505019755
99999.92523973297
100000.02858632848
99999.98903050288
100000.0041300078
99999.99836254855
100000.00057047412
99999.99974095677
100000.00007090898
99999.99995643432
100000.00000793616
99999.99999294271
100000.00000103391
99999.99999900376
99538.62707612327
100203.72885356648
99910.38392089037
100034.31510536725
99986.8104031495
100005.01100763142
99998.10181514794
100000.71772284484
99999.72887926463
100000.10242617452
99999.9612956891
100000.01458998138
99999.99443052293
100000.00204591246
99999.99916885904
100000.00026856364
99999.99986552444
100000.00003044216
99999.99997705397
100000.00000308399
99999.99999637212
100000.00000042644
99999.99999951267
101183.81670607859
99659.01203516574
100147.71172533977
99946.89498324852
100019.60153886011
99992.78361166875
100002.66584140164
99999.01249037172
100000.3668371791
99999.863439926
100000.05095509217
99999.98092297383
100000.00709707467
99999.99727949905
100000.00096343673
99999.99958750317
100000.00011774829
99999.99993074911
100000.00001153309
99999.99998802721
100000.00000099132
99999.99999816925
100000.00000016182
99999.9999997675
95614.7292398154
100604.33047186982
99754.87157622713
100080.15819444272
99971.7818094043
100010.02930508902
99996.38875707184
100001.31112861384
99999.52087107839
100000.17605606512
99999.93504994753
100000.02403320475
99999.99103331465
100000.00328447424
99999.99871540244
100000.00042711389
99999.99979780335
100000.00004644628
99999.999964323
100000.00000337575
99999.9999937921
100000.00000018187
99999.99999909247
100000.00000005422
99999.99999989188
98638.74438440586
128625.36312092772
100408.95906202111
99882.92638821896
100038.65888645776
99986.7569652742
100004.65007869972
99998.34201026989
100000.5976079838
99999.78289987551
100000.0793998055
99999.9708113488
100000.01074045539
99999.99597241312
100000.00143865761
99999.99940870257
100000.00017439041
99999.99990071995
100000.00001497868
99999.99998145849
100000.00000026022
99999.9999967942
99999.99999992421
99999.99999955775
100000.00000001409
99999.99999995087
99354.45074133029
103341.69641109108
156262.5793242234
100157.64587126757
99951.41268818798
100016.09010537769
99994.45329387831
100001.95450054099
99999.30135151929
100000.25235355858
99999.90818409444
100000.0336194739
99999.98760672352
100000.00453494597
99999.99826398953
100000.00058887963
99999.999730692
100000.0000620096
99999.99995030719
100000.00000240754
99999.99999021596
99999.99999932898
99999.99999834894
99999.9999998792
99999.99999978802
100000.00000000095
99999.99999997824
99853.27744659233
100321.01124418131
113952.95731818413
174650.40695011592
100049.1045687199
99983.38557457228
100005.79628865786
99997.93968246166
100000.74142659511
99999.73088232033
100000.09838863378
99999.96385936411
100000.01332255556
99999.99502949207
100000.00179537197
99999.99927499029
100000.0002181221
99999.99987559293
100000.00001570513
99999.99997420044
99999.99999822232
99999.99999474184
99999.99999923761
99999.99999915181
99999.99999990077
99999.99999989994
99999.99999999808
99999.99999999056
99988.34248384679
99806.83986323662
105123.73077172483
128387.25068981739
183458.7044605518
100010.46066506095
99995.50494662963
100001.75499482462
99999.33398615502
100000.25043056134
99999.90619878337
100000.03513822365
99999.98683540939
100000.00490535786
99999.99811367034
100000.00065352334
99999.9997000428
100000.0000662691
99999.99993968291
99999.9999988261
99999.99998595385
99999.99999742457
99999.99999712547
99999.9999994018
99999.99999956592
99999.99999993354
99999.99999995367
99999.99999999808
99999.99999999617
100009.29699611048
99889.20868485201
101016.50137386023
114466.18215119024
143335.90655368916
185120.27061332564
100000.45393773419
99999.2189496988
100000.40851499783
99999.82171777479
100000.07299667259
99999.97104691857
100000.01131201832
99999.99560390314
100000.00165040272
99999.9993155351
100000.00020652465
99999.99987140571
100000.00000931365
99999.99996828493
99999.99999415732
99999.99999198527
99999.99999778577
99999.9999984093
99999.99999959544
99999.9999997789
99999.99999996003
99999.99999997878
99999.99999999865
99999.9999999984
100006.00019845061
99968.234424194
100102.06998545666
104729.95229146343
127389.47057698971
155868.51484076297
182932.30697845214
99999.12100902204
100000.04595029082
100000.04729156784
99999.96631495806
100000.01693218255
99999.99245968513
100000.00316981741
99999.99867067387
100000.00048449493
99999.99975337189
100000.00004442378
99999.99993885728
99999.99999113857
99999.99998170101
99999.99999403462
99999.99999526079
99999.99999839702
99999.99999911487
99999.99999974908
99999.99999988839
99999.99999997769
99999.99999999056
99999.99999999926
99999.99999999945
100002.05270878252
99996.00244524165
99967.02004646849
101306.06737199528
111885.32869229958
141454.04363201326
164553.27825912015
179429.27322853365
99999.48308650948
100000.10908698663
99999.98326964758
99999.99944983517
100000.00222973882
99999.99855928564
100000.00070028297
99999.99963644736
100000.00010299425
99999.99990247225
99999.999992121
99999.99996597705
99999.99998763634
99999.9999886148
99999.99999526008
99999.99999714215
99999.99999893976
99999.99999950829
99999.99999985316
99999.99999994416
99999.99999998814
99999.9999999958
99999.99999999965
99999.9999999999
100000.38968719872
100001.39308143724
99977.67980528937
100266.87932780207
104406.46727604378
122404.20789204132
153953.2175327086
169562.01245483357
176066.98025494453
99999.82382057245
100000.0539873197
99999.98581306291
100000.00319764254
99999.9995212878
99999.99992838647
100000.00006696298
99999.99990075009
99999.9999928135
99999.99995090565
99999.99997926518
99999.9999781093
99999.99998900728
99999.99999260664
99999.99999662164
99999.99999826869
99999.99999933846
99999.99999972891
99999.99999991784
99999.99999997231
99999.99999999384
99999.99999999818
99999.99999999984
99999.99999999996
99999.96927726241
100001.12491304635
99993.06656353519
100029.13180077577
101351.6433511426
110251.27495774058
134867.69658585626
163199.1491309049
171878.58155516494
173448.82726380398
99999.96524493977
100000.0169329501
99999.99411532372
100000.00180551533
99999.99949871306
100000.00008784141
99999.99994792829
99999.99995886968
99999.9999679844
99999.9999674434
99999.9999792996
99999.9999846986
99999.99999152323
99999.99999513397
99999.99999773827
99999.99999895811
99999.99999960448
99999.99999985247
99999.9999999559
99999.99999998661
99999.99999999725
99999.99999999913
99999.99999999994
100000.00000000001
99999.9390035301
100000.41295624076
99998.96335169935
99993.59026404818
100350.07199179848
103915.32012374436
119105.15676634922
147093.4992268331
168911.07656838
172570.58743843503
171685.0104400817
100000.00192686329
100000.00298355211
99999.99838793439
100000.00063134823
99999.9997622778
100000.00003581998
99999.99994354467
99999.99996739195
99999.9999669791
99999.99997495324
99999.99998283263
99999.99998902883
99999.99999390413
99999.99999681575
99999.99999854938
99999.9999993817
99999.99999977156
99999.99999992098
99999.9999999769
99999.99999999352
99999.99999999856
99999.99999999965
100000.00000000012
100000.00000000006
99999.97156075212
100000.08376559019
100000.21771868202
99995.02609336708
100071.02726578718
101306.55348976637
108706.797889144
130207.23373329498
157206.53505377387
171768.89635687904
172449.40069764497
170659.14735654756
100000.00514863065
99999.99964943853
99999.99979018938
100000.00013284625
99999.99990628284
99999.99998955206
99999.99995383363
99999.99996859735
99999.99997149305
99999.99998010673
99999.99998678043
99999.99999218454
99999.99999580321
99999.99999794936
99999.99999909993
99999.99999963977
99999.99999987184
99999.9999999585
99999.9999999883
99999.99999999709
99999.99999999949
99999.99999999994
100000.0
100000.00000000003
99999.99222265299
99999.99582601231
100000.21713687784
99998.36648855807
100008.173788393
100382.4009833202
103445.93906806762
116162.43856595056
141909.32267932227
164349.29089847807
172755.6287523053
172022.01710090335
170176.5498707826
100000.00254881095
99999.99945833978
100000.0000635834
99999.99998593607
99999.99995475315
99999.99996964994
99999.99996162835
99999.99997095391
99999.99997672379
99999.9999844596
99999.99999023712
99999.99999454286
99999.99999720311
99999.99999870647
99999.99999945694
99999.99999979427
99999.99999993
99999.99999997858
99999.99999999428
99999.99999999862
99999.9999999997
99999.99999999999
100000.00000000004
100000.00000000003
99999.99929639878
99999.98812364152
100000.08419557691
99999.71964837538
99998.61748032353
100096.37434553809
101213.77056704594
107416.94622820307
125975.47330381653
152409.56568044238
168666.20494059342
172731.16618581134
171559.67329034995
170040.0230170202
100000.00075568332
99999.99974372733
100000.00004549613
99999.9999589792
99999.99996471833
99999.99996477723
99999.99996710395
99999.9999747674
99999.99998156913
99999.9999882106
99999.9999930097
99999.99999628183
99999.9999981867
99999.99999920232
99999.99999968051
99999.99999988504
99999.99999996267
99999.99999998919
99999.99999999734
99999.99999999935
99999.99999999991
99999.99999999993
100000.00000000001
100000.00000000003
100000.00057951042
99999.99430085694
100000.01814336785
100000.02998366601
99998.79613746544
100019.38709431942
100385.69572270157
103004.8459037821
113725.46677807017
136980.6259352868
160526.60538776315
170847.89660974612
172284.963284194
171181.02117439406
170089.62176330743
100000.00009364242
99999.99991739534
99999.99999973988
99999.99995949853
99999.99996519733
99999.99996611646
99999.99997183119
99999.99997914405
99999.99998579173
99999.99999132403
99999.99999512854
99999.99999753006
99999.99999885347
99999.99999951934
99999.99999981644
99999.99999993706
99999.99999998046
99999.99999999464
99999.99999999866
99999.9999999997
99999.99999999997
99999.99999999996
100000.00000000003
100000.00000000003
100000.00040413406
99999.99842209755
99999.99966195643
100000.04337993628
99999.58552326685
100002.28514884772
100109.77765490391
101104.27485821447
106314.93369277289
122366.38003618331
147577.6597455671
165977.95867525056
171675.95251887932
171754.75194156906
170916.9767150038
170224.4774339526
99999.99994774876
99999.99997342387
99999.9999745461
99999.99996253703
99999.99996571691
99999.99996968868
99999.99997641322
99999.99998341576
99999.99998933668
99999.99999379637
99999.99999669055
99999.99999839943
99999.99999929214
99999.99999971683
99999.99999989694
99999.99999996637
99999.99999999005
99999.9999999976
99999.99999999943
99999.99999999985
99999.99999999997
100000.00000000003
100000.00000000003
100000.00000000003
100000.0001476821
99999.99984759741
99999.99774676829
100000.01802376227
99999.91998753868
99999.66625004415
100027.18290696811
100372.35624537549
102610.34222224733
111664.90443371184
132582.58770561282
156422.33637532967
169156.10174576478
171778.42799115222
171299.25148917103
170759.82336458357
170369.43724050486
99999.99994539593
99999.99997953296
99999.99996530612
99999.99996480272
99999.99996798136
99999.99997398435
99999.99998083178
99999.99998723262
99999.99999220874
99999.99999568214
99999.99999780624
99999.9999989874
99999.99999957265
99999.99999983695
99999.99999994335
99999.99999998238
99999.99999999489
99999.9999999988
99999.99999999964
100000.00000000003
100000.00000000006
100000.0
100000.00000000003
100000.00000000007
100000.00002539449
100000.0001008062
99999.99889513115
100000.00417472674
100000.00215221429
99999.68628775075
100005.41350018843
100115.05726127158
100991.85913704675
105384.13192491567
119243.85796226411
143037.65772975853
162886.5262330976
170724.55560379953
171568.74696249663
170972.11161248756
170681.72419076206
170497.89779497162
99999.99995895219
99999.99997384434
99999.99996353488
99999.99996715607
99999.99997155022
99999.99997839275
99999.99998489417
99999.99999045166
99999.99999445451
99999.99999706999
99999.99999857994
99999.99999937427
99999.99999974786
99999.99999990813
99999.99999996954
99999.99999999098
99999.99999999761
99999.99999999958
99999.99999999999
100000.00000000007
99999.99999999997
99999.99999999999
100000.00000000003
100000.00000000003
99999.9999858897
100000.0000583354
99999.99970966196
100000.00005099505
100000.00900294886
99999.88780173502
100000.63721286165
100032.11701930291
100350.26173431386
102263.07613698278
109931.3135151946
128625.16252228142
152359.62326838504
167053.55707667096
171313.36325016772
171281.0997405353
170769.29331857004
170656.2497444012
170592.84578212528
99999.99996463578
99999.9999690554
99999.99996486242
99999.99997019074
99999.99997573026
99999.9999825899
99999.99998844115
99999.99999304918
99999.99999615189
99999.99999805955
99999.99999910172
99999.9999996218
99999.99999985438
99999.99999994937
99999.9999999839
99999.99999999549
99999.99999999901
99999.99999999983
100000.00000000003
100000.00000000001
100000.00000000001
100000.00000000001
100000.00000000003
100000.00000000003
99999.99997555614
100000.00000167084
99999.99999097947
99999.99952087858
100000.0041776973
99999.97610409209
99999.90881262562
100007.83799716241
100115.01256756933
100884.12663187951
104598.37681278748
116559.83180310536
138758.29745072557
159666.8719620234
169419.57690249546
171391.04840686364
171026.29362976202
170664.5716467225
170659.56711743015
170654.97933962534
99999.99996519557
99999.99996733063
99999.99996763826
99999.99997386757
99999.99997999666
99999.99998637266
99999.99999139724
99999.99999506806
99999.99999739398
99999.99999874437
99999.99999944442
99999.9999997763
99999.99999991775
99999.99999997264
99999.99999999172
99999.99999999769
99999.9999999995
99999.99999999999
100000.00000000007
100000.0
100000.00000000003
100000.00000000003
100000.00000000003
100000.00000000003
99999.99997201312
99999.99997445784
100000.0000327585
99999.99972210568
100000.00114208687
99999.99907379382
99999.91278344039
100001.54160463014
100034.85055551234
100324.10597658805
101961.54891902275
108471.62609709836
125099.17355375642
148338.02566176985
164751.75547761042
170575.1105787912
171253.78295806312
170842.7195674296
170626.0152946064
170675.02560541974
170687.59801568318
99999.99996496932
99999.99996806773
99999.99997122018
99999.9999778692
99999.9999840114
99999.999989626
99999.99999376302
99999.99999658558
99999.99999827631
99999.99999920579
99999.99999966388
99999.99999987047
99999.99999995448
99999.99999998562
99999.99999999587
99999.99999999894
99999.99999999978
100000.0000000001
100000.00000000004
100000.00000000007
100000.00000000003
100000.00000000003
100000.00000000003
100000.00000000003
99999.99996984356
99999.99996563712
100000.0000133912
99999.99988829717
100000.0001519281
100000.00175033674
99999.9682102892
100000.1771750877
100009.57782385361
100111.64215161715
100784.59167804032
103936.27935877853
114255.07776270261
134776.69089094567
156321.2263015523
167914.80734017913
171017.8515567396
171064.5861573516
170730.90870105644
170625.70813166504
170691.6634023951
170702.30602693144
99999.99996580648
99999.9999704022
99999.99997521914
99999.9999818533
99999.99998757773
99999.99999230939
99999.99999558982
99999.99999769147
99999.9999988853
99999.99999950855
99999.99999980084
99999.99999992653
99999.99999997523
99999.99999999253
99999.99999999799
99999.9999999995
99999.99999999993
99999.99999999993
100000.00000000001
100000.00000000003
100000.00000000003
100000.00000000003
100000.00000000003
100000.00000000003
99999.9999687846
99999.99996386754
99999.99999230432
99999.9999516527
99999.9999751589
100000.00085290622
99999.99298304865
99999.97173403818
100002.30632513827
100035.96867375595
100296.72728613314
101701.53640493086