# vtk DataFile Version 2.0
JuliaCFD
ASCII
DATASET UNSTRUCTURED_GRID

POINTS 7752 float
0.0 0.0 -0.005
0.02 0.0 -0.005
0.04 0.0 -0.005
0.06 0.0 -0.005
0.08 0.0 -0.005
0.1 0.0 -0.005
0.12 0.0 -0.005
0.14 0.0 -0.005
0.16 0.0 -0.005
0.18 0.0 -0.005
0.2 0.0 -0.005
0.22 0.0 -0.005
0.24 0.0 -0.005
0.26 0.0 -0.005
0.28 0.0 -0.005
0.3 0.0 -0.005
0.32 0.0 -0.005
0.34 0.0 -0.005
0.36 0.0 -0.005
0.38 0.0 -0.005
0.4 0.0 -0.005
0.42 0.0 -0.005
0.44 0.0 -0.005
0.46 0.0 -0.005
0.48 0.0 -0.005
0.5 0.0 -0.005
0.0 0.02 -0.005
0.02 0.02 -0.005
0.04 0.02 -0.005
0.06 0.02 -0.005
0.08 0.02 -0.005
0.1 0.02 -0.005
0.12 0.02 -0.005
0.14 0.02 -0.005
0.16 0.02 -0.005
0.18 0.02 -0.005
0.2 0.02 -0.005
0.22 0.02 -0.005
0.24 0.02 -0.005
0.26 0.02 -0.005
0.28 0.02 -0.005
0.3 0.02 -0.005
0.32 0.02 -0.005
0.34 0.02 -0.005
0.36 0.02 -0.005
0.38 0.02 -0.005
0.4 0.02 -0.005
0.42 0.02 -0.005
0.44 0.02 -0.005
0.46 0.02 -0.005
0.48 0.02 -0.005
0.5 0.02 -0.005
0.0 0.04 -0.005
0.02 0.04 -0.005
0.04 0.04 -0.005
0.06 0.04 -0.005
0.08 0.04 -0.005
0.1 0.04 -0.005
0.12 0.04 -0.005
0.14 0.04 -0.005
0.16 0.04 -0.005
0.18 0.04 -0.005
0.2 0.04 -0.005
0.22 0.04 -0.005
0.24 0.04 -0.005
0.26 0.04 -0.005
0.28 0.04 -0.005
0.3 0.04 -0.005
0.32 0.04 -0.005
0.34 0.04 -0.005
0.36 0.04 -0.005
0.38 0.04 -0.005
0.4 0.04 -0.005
0.42 0.04 -0.005
0.44 0.04 -0.005
0.46 0.04 -0.005
0.48 0.04 -0.005
0.5 0.04 -0.005
0.0 0.06 -0.005
0.02 0.06 -0.005
0.04 0.06 -0.005
0.06 0.06 -0.005
0.08 0.06 -0.005
0.1 0.06 -0.005
0.12 0.06 -0.005
0.14 0.06 -0.005
0.16 0.06 -0.005
0.18 0.06 -0.005
0.2 0.06 -0.005
0.22 0.06 -0.005
0.24 0.06 -0.005
0.26 0.06 -0.005
0.28 0.06 -0.005
0.3 0.06 -0.005
0.32 0.06 -0.005
0.34 0.06 -0.005
0.36 0.06 -0.005
0.38 0.06 -0.005
0.4 0.06 -0.005
0.42 0.06 -0.005
0.44 0.06 -0.005
0.46 0.06 -0.005
0.48 0.06 -0.005
0.5 0.06 -0.005
0.0 0.08 -0.005
0.02 0.08 -0.005
0.04 0.08 -0.005
0.06 0.08 -0.005
0.08 0.08 -0.005
0.1 0.08 -0.005
0.12 0.08 -0.005
0.14 0.08 -0.005
0.16 0.08 -0.005
0.18 0.08 -0.005
0.2 0.08 -0.005
0.22 0.08 -0.005
0.24 0.08 -0.005
0.26 0.08 -0.005
0.28 0.08 -0.005
0.3 0.08 -0.005
0.32 0.08 -0.005
0.34 0.08 -0.005
0.36 0.08 -0.005
0.38 0.08 -0.005
0.4 0.08 -0.005
0.42 0.08 -0.005
0.44 0.08 -0.005
0.46 0.08 -0.005
0.48 0.08 -0.005
0.5 0.08 -0.005
0.0 0.1 -0.005
0.02 0.1 -0.005
0.04 0.1 -0.005
0.06 0.1 -0.005
0.08 0.1 -0.005
0.1 0.1 -0.005
0.12 0.1 -0.005
0.14 0.1 -0.005
0.16 0.1 -0.005
0.18 0.1 -0.005
0.2 0.1 -0.005
0.22 0.1 -0.005
0.24 0.1 -0.005
0.26 0.1 -0.005
0.28 0.1 -0.005
0.3 0.1 -0.005
0.32 0.1 -0.005
0.34 0.1 -0.005
0.36 0.1 -0.005
0.38 0.1 -0.005
0.4 0.1 -0.005
0.42 0.1 -0.005
0.44 0.1 -0.005
0.46 0.1 -0.005
0.48 0.1 -0.005
0.5 0.1 -0.005
0.0 0.12 -0.005
0.02 0.12 -0.005
0.04 0.12 -0.005
0.06 0.12 -0.005
0.08 0.12 -0.005
0.1 0.12 -0.005
0.12 0.12 -0.005
0.14 0.12 -0.005
0.16 0.12 -0.005
0.18 0.12 -0.005
0.2 0.12 -0.005
0.22 0.12 -0.005
0.24 0.12 -0.005
0.26 0.12 -0.005
0.28 0.12 -0.005
0.3 0.12 -0.005
0.32 0.12 -0.005
0.34 0.12 -0.005
0.36 0.12 -0.005
0.38 0.12 -0.005
0.4 0.12 -0.005
0.42 0.12 -0.005
0.44 0.12 -0.005
0.46 0.12 -0.005
0.48 0.12 -0.005
0.5 0.12 -0.005
0.0 0.14 -0.005
0.02 0.14 -0.005
0.04 0.14 -0.005
0.06 0.14 -0.005
0.08 0.14 -0.005
0.1 0.14 -0.005
0.12 0.14 -0.005
0.14 0.14 -0.005
0.16 0.14 -0.005
0.18 0.14 -0.005
0.2 0.14 -0.005
0.22 0.14 -0.005
0.24 0.14 -0.005
0.26 0.14 -0.005
0.28 0.14 -0.005
0.3 0.14 -0.005
0.32 0.14 -0.005
0.34 0.14 -0.005
0.36 0.14 -0.005
0.38 0.14 -0.005
0.4 0.14 -0.005
0.42 0.14 -0.005
0.44 0.14 -0.005
0.46 0.14 -0.005
0.48 0.14 -0.005
0.5 0.14 -0.005
0.0 0.16 -0.005
0.02 0.16 -0.005
0.04 0.16 -0.005
0.06 0.16 -0.005
0.08 0.16 -0.005
0.1 0.16 -0.005
0.12 0.16 -0.005
0.14 0.16 -0.005
0.16 0.16 -0.005
0.18 0.16 -0.005
0.2 0.16 -0.005
0.22 0.16 -0.005
0.24 0.16 -0.005
0.26 0.16 -0.005
0.28 0.16 -0.005
0.3 0.16 -0.005
0.32 0.16 -0.005
0.34 0.16 -0.005
0.36 0.16 -0.005
0.38 0.16 -0.005
0.4 0.16 -0.005
0.42 0.16 -0.005
0.44 0.16 -0.005
0.46 0.16 -0.005
0.48 0.16 -0.005
0.5 0.16 -0.005
0.0 0.18 -0.005
0.02 0.18 -0.005
0.04 0.18 -0.005
0.06 0.18 -0.005
0.08 0.18 -0.005
0.1 0.18 -0.005
0.12 0.18 -0.005
0.14 0.18 -0.005
0.16 0.18 -0.005
0.18 0.18 -0.005
0.2 0.18 -0.005
0.22 0.18 -0.005
0.24 0.18 -0.005
0.26 0.18 -0.005
0.28 0.18 -0.005
0.3 0.18 -0.005
0.32 0.18 -0.005
0.34 0.18 -0.005
0.36 0.18 -0.005
0.38 0.18 -0.005
0.4 0.18 -0.005
0.42 0.18 -0.005
0.44 0.18 -0.005
0.46 0.18 -0.005
0.48 0.18 -0.005
0.5 0.18 -0.005
0.0 0.2 -0.005
0.02 0.2 -0.005
0.04 0.2 -0.005
0.06 0.2 -0.005
0.08 0.2 -0.005
0.1 0.2 -0.005
0.12 0.2 -0.005
0.14 0.2 -0.005
0.16 0.2 -0.005
0.18 0.2 -0.005
0.2 0.2 -0.005
0.22 0.2 -0.005
0.24 0.2 -0.005
0.26 0.2 -0.005
0.28 0.2 -0.005
0.3 0.2 -0.005
0.32 0.2 -0.005
0.34 0.2 -0.005
0.36 0.2 -0.005
0.38 0.2 -0.005
0.4 0.2 -0.005
0.42 0.2 -0.005
0.44 0.2 -0.005
0.46 0.2 -0.005
0.48 0.2 -0.005
0.5 0.2 -0.005
0.0 0.22 -0.005
0.02 0.22 -0.005
0.04 0.22 -0.005
0.06 0.22 -0.005
0.08 0.22 -0.005
0.1 0.22 -0.005
0.12 0.22 -0.005
0.14 0.22 -0.005
0.16 0.22 -0.005
0.18 0.22 -0.005
0.2 0.22 -0.005
0.22 0.22 -0.005
0.24 0.22 -0.005
0.26 0.22 -0.005
0.28 0.22 -0.005
0.3 0.22 -0.005
0.32 0.22 -0.005
0.34 0.22 -0.005
0.36 0.22 -0.005
0.38 0.22 -0.005
0.4 0.22 -0.005
0.42 0.22 -0.005
0.44 0.22 -0.005
0.46 0.22 -0.005
0.48 0.22 -0.005
0.5 0.22 -0.005
0.0 0.24 -0.005
0.02 0.24 -0.005
0.04 0.24 -0.005
0.06 0.24 -0.005
0.08 0.24 -0.005
0.1 0.24 -0.005
0.12 0.24 -0.005
0.14 0.24 -0.005
0.16 0.24 -0.005
0.18 0.24 -0.005
0.2 0.24 -0.005
0.22 0.24 -0.005
0.24 0.24 -0.005
0.26 0.24 -0.005
0.28 0.24 -0.005
0.3 0.24 -0.005
0.32 0.24 -0.005
0.34 0.24 -0.005
0.36 0.24 -0.005
0.38 0.24 -0.005
0.4 0.24 -0.005
0.42 0.24 -0.005
0.44 0.24 -0.005
0.46 0.24 -0.005
0.48 0.24 -0.005
0.5 0.24 -0.005
0.0 0.26 -0.005
0.02 0.26 -0.005
0.04 0.26 -0.005
0.06 0.26 -0.005
0.08 0.26 -0.005
0.1 0.26 -0.005
0.12 0.26 -0.005
0.14 0.26 -0.005
0.16 0.26 -0.005
0.18 0.26 -0.005
0.2 0.26 -0.005
0.22 0.26 -0.005
0.24 0.26 -0.005
0.26 0.26 -0.005
0.28 0.26 -0.005
0.3 0.26 -0.005
0.32 0.26 -0.005
0.34 0.26 -0.005
0.36 0.26 -0.005
0.38 0.26 -0.005
0.4 0.26 -0.005
0.42 0.26 -0.005
0.44 0.26 -0.005
0.46 0.26 -0.005
0.48 0.26 -0.005
0.5 0.26 -0.005
0.0 0.28 -0.005
0.02 0.28 -0.005
0.04 0.28 -0.005
0.06 0.28 -0.005
0.08 0.28 -0.005
0.1 0.28 -0.005
0.12 0.28 -0.005
0.14 0.28 -0.005
0.16 0.28 -0.005
0.18 0.28 -0.005
0.2 0.28 -0.005
0.22 0.28 -0.005
0.24 0.28 -0.005
0.26 0.28 -0.005
0.28 0.28 -0.005
0.3 0.28 -0.005
0.32 0.28 -0.005
0.34 0.28 -0.005
0.36 0.28 -0.005
0.38 0.28 -0.005
0.4 0.28 -0.005
0.42 0.28 -0.005
0.44 0.28 -0.005
0.46 0.28 -0.005
0.48 0.28 -0.005
0.5 0.28 -0.005
0.0 0.3 -0.005
0.02 0.3 -0.005
0.04 0.3 -0.005
0.06 0.3 -0.005
0.08 0.3 -0.005
0.1 0.3 -0.005
0.12 0.3 -0.005
0.14 0.3 -0.005
0.16 0.3 -0.005
0.18 0.3 -0.005
0.2 0.3 -0.005
0.22 0.3 -0.005
0.24 0.3 -0.005
0.26 0.3 -0.005
0.28 0.3 -0.005
0.3 0.3 -0.005
0.32 0.3 -0.005
0.34 0.3 -0.005
0.36 0.3 -0.005
0.38 0.3 -0.005
0.4 0.3 -0.005
0.42 0.3 -0.005
0.44 0.3 -0.005
0.46 0.3 -0.005
0.48 0.3 -0.005
0.5 0.3 -0.005
0.0 0.32 -0.005
0.02 0.32 -0.005
0.04 0.32 -0.005
0.06 0.32 -0.005
0.08 0.32 -0.005
0.1 0.32 -0.005
0.12 0.32 -0.005
0.14 0.32 -0.005
0.16 0.32 -0.005
0.18 0.32 -0.005
0.2 0.32 -0.005
0.22 0.32 -0.005
0.24 0.32 -0.005
0.26 0.32 -0.005
0.28 0.32 -0.005
0.3 0.32 -0.005
0.32 0.32 -0.005
0.34 0.32 -0.005
0.36 0.32 -0.005
0.38 0.32 -0.005
0.4 0.32 -0.005
0.42 0.32 -0.005
0.44 0.32 -0.005
0.46 0.32 -0.005
0.48 0.32 -0.005
0.5 0.32 -0.005
0.0 0.34 -0.005
0.02 0.34 -0.005
0.04 0.34 -0.005
0.06 0.34 -0.005
0.08 0.34 -0.005
0.1 0.34 -0.005
0.12 0.34 -0.005
0.14 0.34 -0.005
0.16 0.34 -0.005
0.18 0.34 -0.005
0.2 0.34 -0.005
0.22 0.34 -0.005
0.24 0.34 -0.005
0.26 0.34 -0.005
0.28 0.34 -0.005
0.3 0.34 -0.005
0.32 0.34 -0.005
0.34 0.34 -0.005
0.36 0.34 -0.005
0.38 0.34 -0.005
0.4 0.34 -0.005
0.42 0.34 -0.005
0.44 0.34 -0.005
0.46 0.34 -0.005
0.48 0.34 -0.005
0.5 0.34 -0.005
0.0 0.36 -0.005
0.02 0.36 -0.005
0.04 0.36 -0.005
0.06 0.36 -0.005
0.08 0.36 -0.005
0.1 0.36 -0.005
0.12 0.36 -0.005
0.14 0.36 -0.005
0.16 0.36 -0.005
0.18 0.36 -0.005
0.2 0.36 -0.005
0.22 0.36 -0.005
0.24 0.36 -0.005
0.26 0.36 -0.005
0.28 0.36 -0.005
0.3 0.36 -0.005
0.32 0.36 -0.005
0.34 0.36 -0.005
0.36 0.36 -0.005
0.38 0.36 -0.005
0.4 0.36 -0.005
0.42 0.36 -0.005
0.44 0.36 -0.005
0.46 0.36 -0.005
0.48 0.36 -0.005
0.5 0.36 -0.005
0.0 0.38 -0.005
0.02 0.38 -0.005
0.04 0.38 -0.005
0.06 0.38 -0.005
0.08 0.38 -0.005
0.1 0.38 -0.005
0.12 0.38 -0.005
0.14 0.38 -0.005
0.16 0.38 -0.005
0.18 0.38 -0.005
0.2 0.38 -0.005
0.22 0.38 -0.005
0.24 0.38 -0.005
0.26 0.38 -0.005
0.28 0.38 -0.005
0.3 0.38 -0.005
0.32 0.38 -0.005
0.34 0.38 -0.005
0.36 0.38 -0.005
0.38 0.38 -0.005
0.4 0.38 -0.005
0.42 0.38 -0.005
0.44 0.38 -0.005
0.46 0.38 -0.005
0.48 0.38 -0.005
0.5 0.38 -0.005
0.0 0.4 -0.005
0.02 0.4 -0.005
0.04 0.4 -0.005
0.06 0.4 -0.005
0.08 0.4 -0.005
0.1 0.4 -0.005
0.12 0.4 -0.005
0.14 0.4 -0.005
0.16 0.4 -0.005
0.18 0.4 -0.005
0.2 0.4 -0.005
0.22 0.4 -0.005
0.24 0.4 -0.005
0.26 0.4 -0.005
0.28 0.4 -0.005
0.3 0.4 -0.005
0.32 0.4 -0.005
0.34 0.4 -0.005
0.36 0.4 -0.005
0.38 0.4 -0.005
0.4 0.4 -0.005
0.42 0.4 -0.005
0.44 0.4 -0.005
0.46 0.4 -0.005
0.48 0.4 -0.005
0.5 0.4 -0.005
0.0 0.42 -0.005
0.02 0.42 -0.005
0.04 0.42 -0.005
0.06 0.42 -0.005
0.08 0.42 -0.005
0.1 0.42 -0.005
0.12 0.42 -0.005
0.14 0.42 -0.005
0.16 0.42 -0.005
0.18 0.42 -0.005
0.2 0.42 -0.005
0.22 0.42 -0.005
0.24 0.42 -0.005
0.26 0.42 -0.005
0.28 0.42 -0.005
0.3 0.42 -0.005
0.32 0.42 -0.005
0.34 0.42 -0.005
0.36 0.42 -0.005
0.38 0.42 -0.005
0.4 0.42 -0.005
0.42 0.42 -0.005
0.44 0.42 -0.005
0.46 0.42 -0.005
0.48 0.42 -0.005
0.5 0.42 -0.005
0.0 0.44 -0.005
0.02 0.44 -0.005
0.04 0.44 -0.005
0.06 0.44 -0.005
0.08 0.44 -0.005
0.1 0.44 -0.005
0.12 0.44 -0.005
0.14 0.44 -0.005
0.16 0.44 -0.005
0.18 0.44 -0.005
0.2 0.44 -0.005
0.22 0.44 -0.005
0.24 0.44 -0.005
0.26 0.44 -0.005
0.28 0.44 -0.005
0.3 0.44 -0.005
0.32 0.44 -0.005
0.34 0.44 -0.005
0.36 0.44 -0.005
0.38 0.44 -0.005
0.4 0.44 -0.005
0.42 0.44 -0.005
0.44 0.44 -0.005
0.46 0.44 -0.005
0.48 0.44 -0.005
0.5 0.44 -0.005
[...]
CELL_DATA 3750
SCALARS P float 1
LOOKUP_TABLE default
99999.99633283001
100000.0063590132
99999.99636868897
99999.98973325954
100000.00625555839
99999.99665141274
100000.01735151626
99999.98985654376
100000.00572117648
99999.99702181104
99999.97145372239
100000.01710911392
99999.99072441454
100000.00501610363
99999.99745618035
100000.04772848103
99999.971791405
100000.01556400378
99999.99186202616
100000.00419988317
99999.99791083929
99999.9208573335
100000.04719430632
99999.97441370587
100000.01354057695
99999.99317848482
100000.00336275081
99999.99834903482
100000.13186450257
99999.92155922065
100000.04261271021
99999.97783364994
100000.01121553087
99999.99452614525
100000.0025775186
99999.99874325302
99999.78073580345
100000.13106960781
99999.92948853142
100000.03665587102
99999.98174573477
100000.00886075548
99999.99578849981
100000.00189383709
99999.99907741095
100000.36500822534
99999.78111539378
100000.11720843501
99999.93974957454
100000.0298844825
99999.98567412423
100000.00668611386
99999.99688728165
100000.00133570243
99999.99934604885
99999.39265060452
100000.36654184855
99999.80541156944
100000.09936560443
99999.95133576609
100000.02315427945
99999.98926410532
100000.00482634747
99999.997785614
100000.00090546151
99999.99955189481
100001.01068485467
99999.38517693013
100000.32365455708
99999.83646443953
100000.07937398348
99999.96271851596
100000.017082835
99999.99229906073
100000.00333779963
99999.99848077486
100000.00059065619
99999.99970282489
99998.31839808066
100001.03402445442
99999.46142241028
100000.26933453258
99999.87093638368
100000.0599805222
99999.97284097184
100000.01202760274
99999.99469998783
100000.00221451589
99999.99899292814
100000.00037114229
99999.999809054
100002.79809739931
99998.25609995676
100000.89731233193
99999.5568581398
100000.20969447299
99999.90388951097
100000.04299788589
99999.98113351868
100000.0080975581
99999.99649194675
100000.00141104651
99999.99935384127
100000.00022481917
99999.99988101172
99995.34179373326
100002.95061682476
99998.50357055447
100000.72873958036
99999.66023082436
100000.15361065813
99999.93224211976
100000.02932554264
99999.98746874432
100000.00522187361
99999.99776170924
100000.00086411569
99999.99959804238
100000.00013135788
99999.99992802506
100007.76636006501
99994.99051861058
100002.49818355702
99998.80308731832
100000.54916617378
99999.75562214744
100000.10627913392
99999.95462295896
100000.01907769687
99999.99202117253
100000.00322978655
99999.99862021573
100000.00050876662
99999.99975719697
100000.00007405136
99999.99995770479
99987.00928636531
100008.53362879127
99995.82568915734
100001.96263249817
99999.11561880562
100000.38697729373
99999.83438850805
100000.06970297608
99999.97104497775
100000.01186408958
99999.99511814328
100000.00191767368
99999.9991763893
100000.00028794655
99999.9998573804
100000.00004027621
99999.99997583781
100021.87045480375
99985.42075800139
100006.9791735652
99996.78966258318
100001.41794165043
99999.3910431499
100000.25627733694
99999.89382331767
100000.04347050875
99999.98234756026
100000.00706511404
99999.9971228434
100000.00109335779
99999.99952288489
100000.0001565306
99999.99991843107
100000.000021126
99999.99998657288
99962.75871589677
100024.9458242107
99988.32911579222
100005.23262796833
99997.7396711642
100000.95119822618
99999.60698647861
100000.1602070769
99999.93537834774
100000.02584676316
99999.98969287035
100000.00403363525
99999.99836275182
100000.00059835186
99999.99973115281
100000.0000815907
99999.9999545211
100000.00001067668
99999.9999927378
100064.67350048698
99957.34017379102
100019.50119438906
99991.51305593198
100003.57638260833
99998.52810491732
100000.59637708146
99999.76113721536
100000.09487957708
99999.9625556761
100000.01468163019
99999.99422308762
100000.00220904703
99999.99909814142
100000.00031387102
99999.99985229752
100000.00004065597
99999.99997525378
100000.00000519054
99999.99999617548
99884.06058735866
100072.59642438061
99967.46474402174
100013.66747868451
99994.39561845367
100002.25101097161
99999.10694598178
100000.3512112869
99999.8627646093
100000.05338575396
99999.97929438486
100000.00797870615
99999.99688525625
100000.0011601734
99999.99951776356
100000.00015736652
99999.99992069094
100000.00001926749
99999.99998684632
100000.00000242112
99999.99999803823
100219.56357090706
99877.47708174652
100054.08214197817
99978.19559598417
100008.67007477014
99996.60858955594
100001.31561142925
99999.49253570718
100000.19503738232
99999.92524636046
100000.02860106768
99999.98905171631
100000.00415166456
99999.99838075148
100000.0005834784
99999.99974886859
100000.00007502468
99999.99995827551
100000.00000860808
99999.99999316376
100000.00000107905
99999.99999901933
99538.62513236303
100203.72880513113
99910.38406610634
100034.31490738476
99986.81050638447
100005.0109099477
99998.10182370836
100000.71768428243
99999.72887524027
100000.10242485761
99999.96131018623
100000.01461130781
99999.99445495634
100000.00206829859
99999.99918616276
100000.00028009876
99999.99987213513
100000.0000336984
99999.99997843837
100000.00000356739
99999.99999652329
100000.00000045648
99999.99999952226
101183.82051609347
99659.01226494573
100147.71151773375
99946.89523537717
100019.60134596756
99992.78369278912
100002.66576394174
99999.01249314695
100000.36681259183
99999.86344262848
100000.05096446467
99999.9809444812
100000.0071231608
99999.9973054929
100000.00098524206
99999.99960316898
100000.00012754931
99999.99993605276
100000.00001401277
99999.99998902889
100000.00000132632
99999.99999826857
100000.00000018116
99999.99999977305
95614.72197885542
100604.32929306256
99754.87227170348
100080.15773055637
99971.78207411345
100010.02914003012
99996.38881209622
100001.31107196496
99999.52087176926
100000.17604500467
99999.93506046275
100000.02405190302
99999.99106040884
100000.00331335458
99999.99874137921
100000.00044729891
99999.99981137285
100000.00005444538
99999.99996841831
100000.00000519602
99999.99999449105
100000.00000040553
99999.99999915513
100000.00000006615
99999.99999989488
98638.74864030005
128625.38678761697
100408.95665038572
99882.92758132686
100038.6583585626
99986.75719729296
100004.64995036813
99998.34204330822
100000.59757016815
99999.78290246037
100000.07940129867
99999.97082989386
100000.01076665743
99999.99600328018
100000.00146841133
99999.99943332089
100000.00019224253
99999.99991200201
100000.00002126301
99999.99998450777
100000.00000155014
99999.99999726476
100000.00000006869
99999.99999959594
100000.00000002113
99999.9999999525
99354.45751928225
103341.68002216551
156262.59459611072
100157.6429591908
99951.41389786663
100016.0896323714
99994.45347239134
100001.95440742737
99999.30137003565
100000.25233193848
99999.90819176412
100000.03363219091
99999.98763261717
100000.00456651034
99999.99829665384
100000.00061780665
99999.99975295042
100000.00007715015
99999.9999593332
100000.00000716865
99999.9999924084
100000.00000021223
99999.99999865529
99999.99999996915
99999.99999981039
100000.00000000506
99999.99999997915
99853.28259201358
100320.99394656505
113953.05838490893
174648.29531839228
100049.10228406328
99983.38651834977
100005.7959270699
99997.93980572568
100000.74136285848
99999.73089382412
100000.0983809276
99999.96387403393
100000.01334484687
99999.9950612949
100000.00183002194
99999.99930755096
100000.00024487822
99999.99989487218
100000.00002805304
99999.99998116287
100000.00000170592
99999.99999626621
99999.99999982271
99999.99999934479
99999.99999995508
99999.99999991269
100000.00000000028
99999.999999991
99988.34462199404
99806.83688734983
105123.7748254989
128386.45361907854
183445.30476972501
100010.45935075002
99995.50555459116
100001.75475272344
99999.33406361075
100000.25039011055
99999.9062091946
100000.03514268617
99999.98685765838
100000.00493526412
99999.99814943734
100000.00068905378
99999.99973087497
100000.00008993868
99999.99995572933
100000.00000853122
99999.99999114094
99999.99999988958
99999.99999815167
99999.9999997771
99999.99999968366
99999.9999999652
99999.99999996061
99999.99999999923
99999.9999999964
100009.29715672255
99889.21270447895
101016.48069982739
114466.2768540734
143325.2520662908
185072.58694474905
100000.45337920183
99999.2192735924
100000.4083709359
99999.82176249546
100000.07297472478
99999.97106019405
100000.01132718034
99999.99563316607
100000.00168571345
99999.99935311306
100000.00024099574
99999.9998992948
100000.00002941581
99999.99998115025
100000.00000152276
99999.99999572296
99999.99999947484
99999.99999907872
99999.99999982896
99999.99999984872
99999.99999997782
99999.9999999825
99999.99999999929
99999.99999999849
100005.99974009753
99968.23776951873
100102.05253742689
104730.16227370616
127383.89541330372
155818.92009792625
182804.07177167994
99999.12087424018
100000.04608816482
100000.04721606681
99999.96633965288
100000.01692537488
99999.99247805827
100000.0031941471
99999.99870554623
100000.00052288128
99999.99979068685
100000.00007630695
99999.99996305222
100000.00000757525
99999.99999165723
99999.99999944048
99999.99999786915
99999.9999995188
99999.99999953857
99999.99999988977
99999.99999992827
99999.9999999874
99999.99999999236
99999.99999999953
99999.99999999948
100002.05232469508
99996.00317789051
99967.02049604108
101306.0970489566
111884.38645641977
141414.24576763305
164405.82804526144
179139.31072710612
99999.48311335512
100000.10912587383
99999.98323648084
99999.99946487276
100000.00223562995
99999.99858363654
100000.00073197731
99999.99967501947
100000.00014219234
99999.99993775798
100000.00002037527
99999.99998617159
100000.00000060521
99999.99999606471
99999.9999991028
99999.99999890708
99999.9999996628
99999.99999976864
99999.99999993562
99999.99999996643
99999.99999999328
99999.99999999677
99999.99999999978
99999.9999999999
100000.38954855074
100001.3922764464
99977.6873430403
100266.83810224266
104406.88252591812
122384.24464950695
153810.11922681515
169220.87289653657
175491.58425913827
99999.82387263425
100000.05398598604
99999.98580398597
100000.0032105544
99999.99953786633
99999.99995855721
100000.00010392722
99999.99994092324
100000.00003081643
99999.99998284709
100000.00000334083
99999.99999436621
99999.9999989003
99999.99999800493
99999.99999927064
99999.99999942786
99999.99999979114
99999.99999988453
99999.99999996492
99999.9999999845
99999.99999999664
99999.99999999865
99999.99999999993
99999.99999999996
99999.96930777839
100001.12379135774
99993.07274928034
100029.10273554329
101351.90396732626
110245.80912916652
134764.31431182794
162839.97113083856
171209.69615681565
172423.1678541645
99999.96527464659
100000.016922665
99999.9941197696
100000.00182109744
99999.99952407618
100000.00012288927
99999.99998790535
99999.99999862738
100000.00000319543
99999.99999522908
99999.99999907998
99999.99999734743
99999.99999883157
99999.99999892735
99999.99999951117
99999.99999969781
99999.9999998801
99999.99999994278
99999.99999998188
99999.99999999303
99999.99999999841
99999.9999999995
100000.00000000001
100000.00000000006
99999.93909534947
100000.41212744835
99998.96629395284
99993.58304436371
100350.10195211454
103915.18609097612
119052.73404396386
146775.00427980314
168191.2266736279
171404.01846509005
170015.9656786802
100000.00193292636
100000.00297743971
99999.9984008901
100000.00065207528
99999.99979447802
100000.00007425589
99999.99998431567
100000.00000500827
99999.9999982971
99999.99999825023
99999.99999853692
99999.99999855798
99999.99999914032
99999.9999994039
99999.99999970265
99999.99999984076
99999.99999993473
99999.99999997203
99999.99999999098
99999.9999999968
99999.99999999923
99999.99999999987
100000.00000000004
100000.00000000006
99999.97164471276
100000.08332340824
100000.21840839261
99995.02881205094
100070.99223985842
101307.07173575358
108689.79820088901
129986.20211981052
156492.0676668081
170521.1851746135
170591.08680362106
168147.48162146195
100000.00514373835
99999.99965115133
99999.99980974385
100000.00015939798
99999.99994329478
100000.0000295933
99999.99999341939
100000.00000276935
99999.99999832243
99999.99999897939
99999.99999885155
99999.99999914652
99999.99999944629
99999.99999966576
99999.99999982979
99999.99999991697
99999.99999996586
99999.99999998648
99999.99999999563
99999.99999999859
99999.99999999972
99999.99999999993
100000.00000000001
100000.00000000003
99999.9922750542
99999.9956592008
100000.21689025998
99998.3705227425
100008.14767568873
100382.62045766029
103443.13076644913
116050.92826444814
141302.73424115588
163046.91887017165
170799.10735396523
169273.66428374185
166641.36286400424
100000.00254473355
99999.99946786065
100000.000089029
100000.00001773491
99999.99999451861
100000.00000947439
99999.99999844306
100000.0000008567
99999.99999891914
99999.99999926057
99999.99999923499
99999.99999948265
99999.99999966745
99999.99999981429
99999.99999990682
99999.99999995736
99999.99999998284
99999.9999999937
99999.99999999806
99999.99999999948
99999.99999999999
100000.00000000003
100000.00000000003
100000.00000000003
99999.99932004779
99999.98809774601
100000.0837833038
99999.72210901484
99998.60857068605
100096.3977288915
101214.14838688525
107377.07928400903
125571.62418750525
151156.27761415992
166597.93795245342
169881.94103893207
167741.49175529138
165339.60090011457
100000.00075892742
99999.99976016705
100000.0000762001
99999.99999467365
100000.00000524809
100000.00000274467
100000.00000003751
100000.00000003738
99999.9999993393
99999.99999946752
99999.9999995231
99999.99999968984
99999.99999980898
99999.9999998986
99999.99999995065
99999.9999999785
99999.99999999166
99999.99999999705
99999.99999999919
99999.99999999975
99999.9999999999
99999.99999999997
100000.00000000003
100000.00000000003
100000.00058655819
99999.99432667629
100000.01784555729
100000.03090968118
99998.79612538834
100019.36072711465
100386.15118258634
102995.21748475655
113522.23289804299
135963.70989271815
158399.07503145095
167851.14834017667
168372.8886312998
166151.61840604158
164133.72271201533
100000.00010616402
99999.99993986178
100000.0000346805
99999.99999736053
100000.0000046974
100000.0000009292
100000.00000025987
99999.99999981032
99999.99999958595
99999.99999963897
99999.99999971353
99999.99999981878
99999.99999989408
99999.99999994604
99999.99999997472
99999.9999999894
99999.99999999609
99999.99999999872
99999.99999999974
99999.99999999993
99999.99999999996
100000.00000000003
100000.00000000003
100000.00000000003
100000.00040624215
99999.9984574234
99999.999505383
100000.04349708503
99999.58773475495
100002.26377697801
100109.94841022746
101103.27009550174
106237.48927759757
121711.41124813088
145599.1281499687
162818.2052426073
167605.5320803835
166641.53757057854
164586.2444114905
162977.13966153245
99999.9999688975
100000.00000101882
100000.00001228512
100000.00000077038
100000.00000270712
100000.00000047365
100000.0000001514
99999.99999980161
99999.99999973523
99999.99999976931
99999.99999983267
99999.99999989725
99999.99999994293
99999.99999997193
99999.99999998733
99999.99999999486
99999.9999999981
99999.99999999937
99999.99999999991
99999.99999999999
100000.00000000003
100000.00000000003
100000.00000000003
100000.00000000003
100000.00015253144
99999.99987947139
99999.99768114193
100000.01788521872
99999.92173485161
99999.65707749585
100027.20746374902
100372.80205154893
102587.77439038284
111336.32108266963
131039.10926888551
153229.16984215716
164860.73579691435
166512.66276704753
164892.55327609455
163093.20542876105
161844.45089821692
99999.99997345591
100000.00001116212
100000.00000417417
100000.00000176775
100000.000001377
100000.00000030153
100000.00000004357
99999.999999848
99999.99999983133
99999.99999985957
99999.99999990466
99999.99999994354
99999.99999996996
99999.99999998574
99999.99999999383
99999.9999999976
99999.99999999921
99999.99999999975
100000.0
100000.00000000003
100000.00000000003
100000.00000000003
100000.00000000003
100000.00000000007
100000.00003664679
100000.00012909518
99999.99887245633
100000.00403737766
100000.0029993696
99999.68426970819
100005.39921278247
100115.39283653203
100987.20397379034
105252.98867532064
118279.00848541956
140162.28111500962
158368.94984076734
165220.4226715496
165020.8044093164
163232.2871465711
161696.8869640938
160748.70668706606
99999.99999196368
100000.00000814494
100000.00000186705
100000.00000152005
100000.00000069103
100000.00000018565
99999.99999998999
99999.99999989581
99999.99999989512
99999.99999991794
99999.9999999472
99999.99999996992
99999.99999998472
99999.99999999288
99999.99999999705
99999.99999999892
99999.99999999965
99999.99999999988
100000.00000000001
100000.00000000003
100000.00000000003
100000.00000000003
100000.00000000003
100000.00000000003
100000.00000433212
100000.00008611409
99999.99970353208
99999.99998223606
100000.00924468224
99999.88832952894
100000.62314148122
100032.24211247219
100349.99129463025
102220.13385017848
109448.50047964604
126465.9140337242
147876.3415508623
161203.93005854427
164547.22832025023
163408.52710735885
161708.71230323229
160413.86616651763
159701.67337873852
100000.00000070258
100000.00000448205
100000.00000119832
100000.00000100673
100000.0000003581
100000.00000010182
99999.99999997384
99999.99999993252
99999.9999999368
99999.99999995375
99999.99999997146
99999.99999998446
99999.99999999236
99999.99999999667
99999.99999999866
99999.99999999945
99999.99999999987
100000.00000000004
100000.00000000003
100000.00000000003
100000.00000000003
100000.00000000003
100000.00000000003
100000.00000000003
100000.00000030083
100000.00003129918
99999.99999193965
99999.99951036935
100000.0041493117
99999.97699184148
99999.90167362375
100007.86230963282
100115.35668103228
100872.64084012414
104398.64030987017
115245.7033794836
134857.53123591864
153531.405471191
162268.52976240823
163333.23713038958
161834.18810550665
160340.43653788554
159251.6074217668
158721.75656530668
100000.0000025649
100000.00000233186
100000.00000085142
100000.00000059191
100000.0000001906
100000.00000004882
99999.99999997456
99999.99999995796
99999.9999999632
99999.99999997462
99999.99999998507
99999.99999999204
99999.99999999629
99999.99999999847
99999.99999999943
99999.99999999985
99999.99999999997
100000.00000000007
100000.00000000003
100000.00000000003
100000.00000000001
100000.00000000003
100000.00000000003
100000.00000000003
100000.00000136402
100000.00000673959
100000.00003943966
99999.99974384544
100000.00104297622
99999.99968615975
99999.91032835568
100001.53656037438
100035.07570734339
100321.89427145112
101890.60620570916
107815.28281333642
122275.99062693339
142386.27908115342
157082.4155220279
162156.19831562878
161906.2855785396
160380.3356255868
159129.41535066345
158212.60802752202
157820.68735361146
100000.00000206412
100000.00000126743
100000.00000057276
100000.0000003281
100000.00000010146
100000.00000001995
99999.99999998068
99999.9999999748
99999.99999997929
99999.9999999864
99999.99999999242
99999.99999999619
99999.99999999827
99999.99999999929
99999.99999999975
99999.99999999994
100000.00000000003
100000.00000000003
100000.00000000003
100000.00000000007
100000.00000000003
100000.00000000003
100000.00000000003
100000.00000000003
100000.00000184329
100000.00000017333
100000.00002645359
99999.99992310544
100000.00006496247
100000.00207046464
99999.96774849077
100000.16955033368
100009.66551550581
100111.5854943982
100762.61679173895
103656.74714354919
112578.07476396869
129783.55818396862
148339.00704133406
158878.22984405523
161362.92617105166
160465.16690525535
159083.36876718776
158069.33949969476
157294.3179377021
157011.05772348112
100000.00000127224
100000.00000073275
100000.00000035574
100000.00000017625
100000.00000005253
100000.0000000062
99999.99999998693
99999.99999998538
99999.99999998874
99999.99999999297
99999.99999999619
99999.9999999982
99999.99999999911
99999.99999999968
99999.99999999993
99999.99999999997
100000.00000000003
100000.00000000003
100000.00000000007
100000.00000000003
100000.00000000003
100000.00000000003
100000.00000000003
100000.00000000003
100000.00000154115
99999.99999960979
100000.00001180882
99999.99998989602