# vtk DataFile Version 2.0
JuliaCFD
ASCII
DATASET UNSTRUCTURED_GRID

POINTS 7752 float
0.0 0.0 -0.005
0.02 0.0 -0.005
0.04 0.0 -0.005
0.06 0.0 -0.005
0.08 0.0 -0.005
0.1 0.0 -0.005
0.12 0.0 -0.005
0.14 0.0 -0.005
0.16 0.0 -0.005
0.18 0.0 -0.005
0.2 0.0 -0.005
0.22 0.0 -0.005
0.24 0.0 -0.005
0.26 0.0 -0.005
0.28 0.0 -0.005
0.3 0.0 -0.005
0.32 0.0 -0.005
0.34 0.0 -0.005
0.36 0.0 -0.005
0.38 0.0 -0.005
0.4 0.0 -0.005
0.42 0.0 -0.005
0.44 0.0 -0.005
0.46 0.0 -0.005
0.48 0.0 -0.005
0.5 0.0 -0.005
0.0 0.02 -0.005
0.02 0.02 -0.005
0.04 0.02 -0.005
0.06 0.02 -0.005
0.08 0.02 -0.005
0.1 0.02 -0.005
0.12 0.02 -0.005
0.14 0.02 -0.005
0.16 0.02 -0.005
0.18 0.02 -0.005
0.2 0.02 -0.005
0.22 0.02 -0.005
0.24 0.02 -0.005
0.26 0.02 -0.005
0.28 0.02 -0.005
0.3 0.02 -0.005
0.32 0.02 -0.005
0.34 0.02 -0.005
0.36 0.02 -0.005
0.38 0.02 -0.005
0.4 0.02 -0.005
0.42 0.02 -0.005
0.44 0.02 -0.005
0.46 0.02 -0.005
0.48 0.02 -0.005
0.5 0.02 -0.005
0.0 0.04 -0.005
0.02 0.04 -0.005
0.04 0.04 -0.005
0.06 0.04 -0.005
0.08 0.04 -0.005
0.1 0.04 -0.005
0.12 0.04 -0.005
0.14 0.04 -0.005
0.16 0.04 -0.005
0.18 0.04 -0.005
0.2 0.04 -0.005
0.22 0.04 -0.005
0.24 0.04 -0.005
0.26 0.04 -0.005
0.28 0.04 -0.005
0.3 0.04 -0.005
0.32 0.04 -0.005
0.34 0.04 -0.005
0.36 0.04 -0.005
0.38 0.04 -0.005
0.4 0.04 -0.005
0.42 0.04 -0.005
0.44 0.04 -0.005
0.46 0.04 -0.005
0.48 0.04 -0.005
0.5 0.04 -0.005
0.0 0.06 -0.005
0.02 0.06 -0.005
0.04 0.06 -0.005
0.06 0.06 -0.005
0.08 0.06 -0.005
0.1 0.06 -0.005
0.12 0.06 -0.005
0.14 0.06 -0.005
0.16 0.06 -0.005
0.18 0.06 -0.005
0.2 0.06 -0.005
0.22 0.06 -0.005
0.24 0.06 -0.005
0.26 0.06 -0.005
0.28 0.06 -0.005
0.3 0.06 -0.005
0.32 0.06 -0.005
0.34 0.06 -0.005
0.36 0.06 -0.005
0.38 0.06 -0.005
0.4 0.06 -0.005
0.42 0.06 -0.005
0.44 0.06 -0.005
0.46 0.06 -0.005
0.48 0.06 -0.005
0.5 0.06 -0.005
0.0 0.08 -0.005
0.02 0.08 -0.005
0.04 0.08 -0.005
0.06 0.08 -0.005
0.08 0.08 -0.005
0.1 0.08 -0.005
0.12 0.08 -0.005
0.14 0.08 -0.005
0.16 0.08 -0.005
0.18 0.08 -0.005
0.2 0.08 -0.005
0.22 0.08 -0.005
0.24 0.08 -0.005
0.26 0.08 -0.005
0.28 0.08 -0.005
0.3 0.08 -0.005
0.32 0.08 -0.005
0.34 0.08 -0.005
0.36 0.08 -0.005
0.38 0.08 -0.005
0.4 0.08 -0.005
0.42 0.08 -0.005
0.44 0.08 -0.005
0.46 0.08 -0.005
0.48 0.08 -0.005
0.5 0.08 -0.005
0.0 0.1 -0.005
0.02 0.1 -0.005
0.04 0.1 -0.005
0.06 0.1 -0.005
0.08 0.1 -0.005
0.1 0.1 -0.005
0.12 0.1 -0.005
0.14 0.1 -0.005
0.16 0.1 -0.005
0.18 0.1 -0.005
0.2 0.1 -0.005
0.22 0.1 -0.005
0.24 0.1 -0.005
0.26 0.1 -0.005
0.28 0.1 -0.005
0.3 0.1 -0.005
0.32 0.1 -0.005
0.34 0.1 -0.005
0.36 0.1 -0.005
0.38 0.1 -0.005
0.4 0.1 -0.005
0.42 0.1 -0.005
0.44 0.1 -0.005
0.46 0.1 -0.005
0.48 0.1 -0.005
0.5 0.1 -0.005
0.0 0.12 -0.005
0.02 0.12 -0.005
0.04 0.12 -0.005
0.06 0.12 -0.005
0.08 0.12 -0.005
0.1 0.12 -0.005
0.12 0.12 -0.005
0.14 0.12 -0.005
0.16 0.12 -0.005
0.18 0.12 -0.005
0.2 0.12 -0.005
0.22 0.12 -0.005
0.24 0.12 -0.005
0.26 0.12 -0.005
0.28 0.12 -0.005
0.3 0.12 -0.005
0.32 0.12 -0.005
0.34 0.12 -0.005
0.36 0.12 -0.005
0.38 0.12 -0.005
0.4 0.12 -0.005
0.42 0.12 -0.005
0.44 0.12 -0.005
0.46 0.12 -0.005
0.48 0.12 -0.005
0.5 0.12 -0.005
0.0 0.14 -0.005
0.02 0.14 -0.005
0.04 0.14 -0.005
0.06 0.14 -0.005
0.08 0.14 -0.005
0.1 0.14 -0.005
0.12 0.14 -0.005
0.14 0.14 -0.005
0.16 0.14 -0.005
0.18 0.14 -0.005
0.2 0.14 -0.005
0.22 0.14 -0.005
0.24 0.14 -0.005
0.26 0.14 -0.005
0.28 0.14 -0.005
0.3 0.14 -0.005
0.32 0.14 -0.005
0.34 0.14 -0.005
0.36 0.14 -0.005
0.38 0.14 -0.005
0.4 0.14 -0.005
0.42 0.14 -0.005
0.44 0.14 -0.005
0.46 0.14 -0.005
0.48 0.14 -0.005
0.5 0.14 -0.005
0.0 0.16 -0.005
0.02 0.16 -0.005
0.04 0.16 -0.005
0.06 0.16 -0.005
0.08 0.16 -0.005
0.1 0.16 -0.005
0.12 0.16 -0.005
0.14 0.16 -0.005
0.16 0.16 -0.005
0.18 0.16 -0.005
0.2 0.16 -0.005
0.22 0.16 -0.005
0.24 0.16 -0.005
0.26 0.16 -0.005
0.28 0.16 -0.005
0.3 0.16 -0.005
0.32 0.16 -0.005
0.34 0.16 -0.005
0.36 0.16 -0.005
0.38 0.16 -0.005
0.4 0.16 -0.005
0.42 0.16 -0.005
0.44 0.16 -0.005
0.46 0.16 -0.005
0.48 0.16 -0.005
0.5 0.16 -0.005
0.0 0.18 -0.005
0.02 0.18 -0.005
0.04 0.18 -0.005
0.06 0.18 -0.005
0.08 0.18 -0.005
0.1 0.18 -0.005
0.12 0.18 -0.005
0.14 0.18 -0.005
0.16 0.18 -0.005
0.18 0.18 -0.005
0.2 0.18 -0.005
0.22 0.18 -0.005
0.24 0.18 -0.005
0.26 0.18 -0.005
0.28 0.18 -0.005
0.3 0.18 -0.005
0.32 0.18 -0.005
0.34 0.18 -0.005
0.36 0.18 -0.005
0.38 0.18 -0.005
0.4 0.18 -0.005
0.42 0.18 -0.005
0.44 0.18 -0.005
0.46 0.18 -0.005
0.48 0.18 -0.005
0.5 0.18 -0.005
0.0 0.2 -0.005
0.02 0.2 -0.005
0.04 0.2 -0.005
0.06 0.2 -0.005
0.08 0.2 -0.005
0.1 0.2 -0.005
0.12 0.2 -0.005
0.14 0.2 -0.005
0.16 0.2 -0.005
0.18 0.2 -0.005
0.2 0.2 -0.005
0.22 0.2 -0.005
0.24 0.2 -0.005
0.26 0.2 -0.005
0.28 0.2 -0.005
0.3 0.2 -0.005
0.32 0.2 -0.005
0.34 0.2 -0.005
0.36 0.2 -0.005
0.38 0.2 -0.005
0.4 0.2 -0.005
0.42 0.2 -0.005
0.44 0.2 -0.005
0.46 0.2 -0.005
0.48 0.2 -0.005
0.5 0.2 -0.005
0.0 0.22 -0.005
0.02 0.22 -0.005
0.04 0.22 -0.005
0.06 0.22 -0.005
0.08 0.22 -0.005
0.1 0.22 -0.005
0.12 0.22 -0.005
0.14 0.22 -0.005
0.16 0.22 -0.005
0.18 0.22 -0.005
0.2 0.22 -0.005
0.22 0.22 -0.005
0.24 0.22 -0.005
0.26 0.22 -0.005
0.28 0.22 -0.005
0.3 0.22 -0.005
0.32 0.22 -0.005
0.34 0.22 -0.005
0.36 0.22 -0.005
0.38 0.22 -0.005
0.4 0.22 -0.005
0.42 0.22 -0.005
0.44 0.22 -0.005
0.46 0.22 -0.005
0.48 0.22 -0.005
0.5 0.22 -0.005
0.0 0.24 -0.005
0.02 0.24 -0.005
0.04 0.24 -0.005
0.06 0.24 -0.005
0.08 0.24 -0.005
0.1 0.24 -0.005
0.12 0.24 -0.005
0.14 0.24 -0.005
0.16 0.24 -0.005
0.18 0.24 -0.005
0.2 0.24 -0.005
0.22 0.24 -0.005
0.24 0.24 -0.005
0.26 0.24 -0.005
0.28 0.24 -0.005
0.3 0.24 -0.005
0.32 0.24 -0.005
0.34 0.24 -0.005
0.36 0.24 -0.005
0.38 0.24 -0.005
0.4 0.24 -0.005
0.42 0.24 -0.005
0.44 0.24 -0.005
0.46 0.24 -0.005
0.48 0.24 -0.005
0.5 0.24 -0.005
0.0 0.26 -0.005
0.02 0.26 -0.005
0.04 0.26 -0.005
0.06 0.26 -0.005
0.08 0.26 -0.005
0.1 0.26 -0.005
0.12 0.26 -0.005
0.14 0.26 -0.005
0.16 0.26 -0.005
0.18 0.26 -0.005
0.2 0.26 -0.005
0.22 0.26 -0.005
0.24 0.26 -0.005
0.26 0.26 -0.005
0.28 0.26 -0.005
0.3 0.26 -0.005
0.32 0.26 -0.005
0.34 0.26 -0.005
0.36 0.26 -0.005
0.38 0.26 -0.005
0.4 0.26 -0.005
0.42 0.26 -0.005
0.44 0.26 -0.005
0.46 0.26 -0.005
0.48 0.26 -0.005
0.5 0.26 -0.005
0.0 0.28 -0.005
0.02 0.28 -0.005
0.04 0.28 -0.005
0.06 0.28 -0.005
0.08 0.28 -0.005
0.1 0.28 -0.005
0.12 0.28 -0.005
0.14 0.28 -0.005
0.16 0.28 -0.005
0.18 0.28 -0.005
0.2 0.28 -0.005
0.22 0.28 -0.005
0.24 0.28 -0.005
0.26 0.28 -0.005
0.28 0.28 -0.005
0.3 0.28 -0.005
0.32 0.28 -0.005
0.34 0.28 -0.005
0.36 0.28 -0.005
0.38 0.28 -0.005
0.4 0.28 -0.005
0.42 0.28 -0.005
0.44 0.28 -0.005
0.46 0.28 -0.005
0.48 0.28 -0.005
0.5 0.28 -0.005
0.0 0.3 -0.005
0.02 0.3 -0.005
0.04 0.3 -0.005
0.06 0.3 -0.005
0.08 0.3 -0.005
0.1 0.3 -0.005
0.12 0.3 -0.005
0.14 0.3 -0.005
0.16 0.3 -0.005
0.18 0.3 -0.005
0.2 0.3 -0.005
0.22 0.3 -0.005
0.24 0.3 -0.005
0.26 0.3 -0.005
0.28 0.3 -0.005
0.3 0.3 -0.005
0.32 0.3 -0.005
0.34 0.3 -0.005
0.36 0.3 -0.005
0.38 0.3 -0.005
0.4 0.3 -0.005
0.42 0.3 -0.005
0.44 0.3 -0.005
0.46 0.3 -0.005
0.48 0.3 -0.005
0.5 0.3 -0.005
0.0 0.32 -0.005
0.02 0.32 -0.005
0.04 0.32 -0.005
0.06 0.32 -0.005
0.08 0.32 -0.005
0.1 0.32 -0.005
0.12 0.32 -0.005
0.14 0.32 -0.005
0.16 0.32 -0.005
0.18 0.32 -0.005
0.2 0.32 -0.005
0.22 0.32 -0.005
0.24 0.32 -0.005
0.26 0.32 -0.005
0.28 0.32 -0.005
0.3 0.32 -0.005
0.32 0.32 -0.005
0.34 0.32 -0.005
0.36 0.32 -0.005
0.38 0.32 -0.005
0.4 0.32 -0.005
0.42 0.32 -0.005
0.44 0.32 -0.005
0.46 0.32 -0.005
0.48 0.32 -0.005
0.5 0.32 -0.005
0.0 0.34 -0.005
0.02 0.34 -0.005
0.04 0.34 -0.005
0.06 0.34 -0.005
0.08 0.34 -0.005
0.1 0.34 -0.005
0.12 0.34 -0.005
0.14 0.34 -0.005
0.16 0.34 -0.005
0.18 0.34 -0.005
0.2 0.34 -0.005
0.22 0.34 -0.005
0.24 0.34 -0.005
0.26 0.34 -0.005
0.28 0.34 -0.005
0.3 0.34 -0.005
0.32 0.34 -0.005
0.34 0.34 -0.005
0.36 0.34 -0.005
0.38 0.34 -0.005
0.4 0.34 -0.005
0.42 0.34 -0.005
0.44 0.34 -0.005
0.46 0.34 -0.005
0.48 0.34 -0.005
0.5 0.34 -0.005
0.0 0.36 -0.005
0.02 0.36 -0.005
0.04 0.36 -0.005
0.06 0.36 -0.005
0.08 0.36 -0.005
0.1 0.36 -0.005
0.12 0.36 -0.005
0.14 0.36 -0.005
0.16 0.36 -0.005
0.18 0.36 -0.005
0.2 0.36 -0.005
0.22 0.36 -0.005
0.24 0.36 -0.005
0.26 0.36 -0.005
0.28 0.36 -0.005
0.3 0.36 -0.005
0.32 0.36 -0.005
0.34 0.36 -0.005
0.36 0.36 -0.005
0.38 0.36 -0.005
0.4 0.36 -0.005
0.42 0.36 -0.005
0.44 0.36 -0.005
0.46 0.36 -0.005
0.48 0.36 -0.005
0.5 0.36 -0.005
0.0 0.38 -0.005
0.02 0.38 -0.005
0.04 0.38 -0.005
0.06 0.38 -0.005
0.08 0.38 -0.005
0.1 0.38 -0.005
0.12 0.38 -0.005
0.14 0.38 -0.005
0.16 0.38 -0.005
0.18 0.38 -0.005
0.2 0.38 -0.005
0.22 0.38 -0.005
0.24 0.38 -0.005
0.26 0.38 -0.005
0.28 0.38 -0.005
0.3 0.38 -0.005
0.32 0.38 -0.005
0.34 0.38 -0.005
0.36 0.38 -0.005
0.38 0.38 -0.005
0.4 0.38 -0.005
0.42 0.38 -0.005
0.44 0.38 -0.005
0.46 0.38 -0.005
0.48 0.38 -0.005
0.5 0.38 -0.005
0.0 0.4 -0.005
0.02 0.4 -0.005
0.04 0.4 -0.005
0.06 0.4 -0.005
0.08 0.4 -0.005
0.1 0.4 -0.005
0.12 0.4 -0.005
0.14 0.4 -0.005
0.16 0.4 -0.005
0.18 0.4 -0.005
0.2 0.4 -0.005
0.22 0.4 -0.005
0.24 0.4 -0.005
0.26 0.4 -0.005
0.28 0.4 -0.005
0.3 0.4 -0.005
0.32 0.4 -0.005
0.34 0.4 -0.005
0.36 0.4 -0.005
0.38 0.4 -0.005
0.4 0.4 -0.005
0.42 0.4 -0.005
0.44 0.4 -0.005
0.46 0.4 -0.005
0.48 0.4 -0.005
0.5 0.4 -0.005
0.0 0.42 -0.005
0.02 0.42 -0.005
0.04 0.42 -0.005
0.06 0.42 -0.005
0.08 0.42 -0.005
0.1 0.42 -0.005
0.12 0.42 -0.005
0.14 0.42 -0.005
0.16 0.42 -0.005
0.18 0.42 -0.005
0.2 0.42 -0.005
0.22 0.42 -0.005
0.24 0.42 -0.005
0.26 0.42 -0.005
0.28 0.42 -0.005
0.3 0.42 -0.005
0.32 0.42 -0.005
0.34 0.42 -0.005
0.36 0.42 -0.005
0.38 0.42 -0.005
0.4 0.42 -0.005
0.42 0.42 -0.005
0.44 0.42 -0.005
0.46 0.42 -0.005
0.48 0.42 -0.005
0.5 0.42 -0.005
0.0 0.44 -0.005
0.02 0.44 -0.005
0.04 0.44 -0.005
0.06 0.44 -0.005
0.08 0.44 -0.005
0.1 0.44 -0.005
0.12 0.44 -0.005
0.14 0.44 -0.005
0.16 0.44 -0.005
0.18 0.44 -0.005
0.2 0.44 -0.005
0.22 0.44 -0.005
0.24 0.44 -0.005
0.26 0.44 -0.005
0.28 0.44 -0.005
0.3 0.44 -0.005
0.32 0.44 -0.005
0.34 0.44 -0.005
0.36 0.44 -0.005
0.38 0.44 -0.005
0.4 0.44 -0.005
0.42 0.44 -0.005
0.44 0.44 -0.005
0.46 0.44 -0.005
0.48 0.44 -0.005
0.5 0.44 -0.005
[...]
CELL_DATA 3750
SCALARS P float 1
LOOKUP_TABLE default
99999.99633274192
100000.00635933559
99999.9963685893
99999.98973421621
100000.00625592752
99999.9966513404
100000.01735534424
99999.9898574298
100000.00572154742
99999.99702177245
99999.97146121357
100000.01711285708
99999.99072528556
100000.00501646903
99999.99745618358
100000.0477430958
99999.97179836592
100000.01556739527
99999.99186284762
100000.00420021718
99999.99791088527
99999.92087795095
100000.04720836472
99999.97441986925
100000.01354346644
99999.99317922014
100000.00336302507
99999.99834911602
100000.13189475216
99999.9215786837
100000.04262507688
99999.97783869074
100000.0112177659
99999.99452674465
100000.0025777084
99999.99874335388
99999.78076992641
100000.13109922622
99999.92950556005
100000.03666595288
99999.98174944894
100000.00886222653
99999.99578891126
100000.00189392894
99999.999077511
100000.36505204569
99999.78114859013
100000.11723466002
99999.93976330789
100000.02989183844
99999.98567639828
100000.00668677058
99999.99688746237
100000.00133569565
99999.99934612797
99999.39269123058
100000.36658607531
99999.80544097134
100000.0993872936
99999.95134570076
100000.02315870693
99999.98926492067
100000.00482621188
99999.99778554204
100000.00090536753
99999.99955193851
100001.01073655425
99999.38521817804
100000.32369474498
99999.83648879094
100000.07939024571
99999.96272445745
100000.01708436501
99999.99229849134
100000.00333696464
99999.99848045662
100000.00059049495
99999.99970282789
99998.31843490688
100001.03407791513
99999.46145962356
100000.2693692271
99999.87095483088
100000.05999093072
99999.97284299822
100000.01202648054
99999.99469819597
100000.00221312884
99999.99899239927
100000.0003709377
99999.99980901935
100002.79815327698
99998.25613989349
100000.89736300196
99999.55689022667
100000.20972223787
99999.90390163347
100000.04300245982
99999.98113193107
100000.00809419944
99999.99648917136
100000.00140928573
99999.99935316028
100000.00022459487
99999.99988094934
99995.34181572108
100002.95067401622
99998.50360653318
100000.72878588997
99999.66025676292
100000.15363055236
99999.93224786817
100000.02932469475
99999.9874640274
100000.00521680749
99999.99775824371
100000.00086216394
99999.99959728029
100000.00013113425
99999.99992794772
100007.76642133827
99994.99054681607
100002.49824168923
99998.80311923743
100000.54920608952
99999.7556412226
100000.10629076419
99999.95462259784
100000.01907214886
99999.99201395658
100000.00322359124
99999.9986163758
100000.00050678937
99999.99975642403
100000.0000738438
99999.99995762481
99987.00928127501
100008.53368837455
99995.82571108226
100001.96268939695
99999.11564612656
100000.38700907263
99999.83440023934
100000.06970649095
99999.97103905841
100000.01185477673
99999.99510915716
100000.00191091675
99999.99917247613
100000.00028607606
99999.99985665512
100000.00004009495
99999.99997576403
100021.87052374305
99985.42075895463
100006.97924228062
99996.78968036451
100001.41799419634
99999.39106527006
100000.25629975811
99999.89382746877
100000.04346652771
99999.98233690063
100000.00705308918
99999.99711285216
100000.00108654513
99999.99951915431
100000.00015485905
99999.99991779425
100000.00002097567
99999.99998651096
99962.75869372727
100024.94589955786
99988.32910167576
100005.23270141258
99997.7396866134
100000.95124346454
99999.60700259553
100000.16021957003
99999.93537500658
100000.02583628496
99999.989678515
100000.00401997786
99999.99835248663
100000.00059189208
99999.99972779289
100000.0000801697
99999.9999539938
100000.00001055791
99999.99999268963
100064.67348298735
99957.3401165675
100019.5012936438
99991.5130327767
100003.576453891
99998.5281188733
100000.5964126583
99999.76114639621
100000.0948822007
99999.96254533141
100000.01466593666
99999.99420623282
100000.00219477898
99999.99908823373
100000.00030805597
99999.99984942083
100000.0000395016
99999.99997483974
100000.00000510081
99999.99999614035
99884.06085778281
100072.59653117092
99967.46465686333
100013.66759434938
99994.39559616985
100002.25107462588
99999.10695817556
100000.35123577123
99999.86276607144
100000.05337913508
99999.9792779553
100000.00795926276
99999.9968671433
100000.00114618542
99999.9995086971
100000.00015236906
99999.99991833945
100000.00001836874
99999.99998653661
100000.00000235607
99999.99999801417
100219.56271753473
99877.47699972734
100054.08229030936
99978.19548433194
100008.67018692543
99996.60857330174
100001.3156634977
99999.49254474597
100000.1950501977
99999.92523973291
100000.02858632864
99999.9890305028
100000.00413000783
99999.99836254846
100000.0005704741
99999.99974095676
100000.0000709089
99999.99995643437
100000.00000793618
99999.99999294266
100000.00000103388
99999.9999990038
99538.62707612
100203.72885356586
99910.38392088955
100034.3151053679
99986.81040314877
100005.01100763207
99998.10181514746
100000.71772284512
99999.72887926428
100000.10242617468
99999.96129568899
100000.01458998135
99999.99443052267
100000.00204591248
99999.99916885921
100000.00026856364
99999.99986552443
100000.00003044204
99999.99997705402
100000.00000308396
99999.99999637216
100000.0000004264
99999.9999995127
101183.81670607263
99659.0120351628
100147.71172533958
99946.89498324724
100019.60153886113
99992.78361166782
100002.66584140244
99999.01249037118
100000.36683717939
99999.8634399258
100000.05095509227
99999.98092297367
100000.00709707486
99999.997279499
100000.00096343683
99999.99958750325
100000.00011774835
99999.99993074898
100000.00001153305
99999.99998802721
100000.00000099129
99999.99999816934
100000.00000016186
99999.99999976752
95614.72923980445
100604.3304718638
99754.87157622377
100080.15819444328
99971.78180940263
100010.02930509046
99996.38875707089
100001.31112861467
99999.52087107785
100000.1760560654
99999.93504994725
100000.02403320477
99999.99103331455
100000.0032844743
99999.99871540244
100000.00042711392
99999.99979780325
100000.00004644635
99999.99996432292
100000.00000337577
99999.99999379231
100000.00000018171
99999.99999909246
100000.00000005422
99999.9999998918
98638.74438439487
128625.36312086733
100408.95906201642
99882.92638821484
100038.6588864592
99986.75696527197
100004.65007870125
99998.34201026881
100000.59760798457
99999.78289987493
100000.07939980563
99999.97081134855
100000.01074045531
99999.99597241297
100000.00143865767
99999.99940870256
100000.00017439054
99999.99990071998
100000.00001497872
99999.99998145849
100000.00000026023
99999.99999679423
99999.99999992423
99999.99999955777
100000.00000001409
99999.99999995084
99354.45074131779
103341.69641105755
156262.57932407252
100157.64587126503
99951.41268818289
100016.09010537986
99994.4532938758
100001.9545005426
99999.30135151817
100000.25235355926
99999.90818409392
100000.03361947408
99999.98760672347
100000.00453494604
99999.99826398933
100000.00058887966
99999.99973069195
100000.00006200963
99999.9999503071
100000.00000240754
99999.99999021587
99999.99999932882
99999.99999834894
99999.99999987915
99999.99999978801
100000.00000000106
99999.9999999782
99853.27744657782
100321.01124415887
113952.95731808864
174650.4069497795
100049.10456871985
99983.38557456636
100005.79628866081
99997.93968245925
100000.74142659683
99999.73088231932
100000.09838863452
99999.96385936355
100000.0133225558
99999.99502949175
100000.00179537198
99999.99927499017
100000.00021812218
99999.99987559275
100000.00001570533
99999.99997420037
99999.9999982224
99999.99999474194
99999.99999923755
99999.99999915187
99999.99999990081
99999.9999999
99999.99999999805
99999.9999999906
99988.34248383038
99806.83986322113
105123.73077166206
128387.25068953901
183458.70446004038
100010.46066506351
99995.5049466233
100001.75499482799
99999.33398615244
100000.25043056291
99999.90619878224
100000.03513822422
99999.98683540898
100000.00490535822
99999.99811367023
100000.00065352349
99999.99970004265
100000.00006626897
99999.99993968286
99999.99999882613
99999.99998595382
99999.99999742449
99999.99999712552
99999.9999994018
99999.99999956586
99999.99999993356
99999.99999995358
99999.99999999812
99999.99999999607
100009.2969960929
99889.20868484314
101016.5013738129
114466.18215099827
143335.9065531466
185120.27061238798
100000.45393773892
99999.21894969237
100000.40851500153
99999.8217177725
100000.07299667422
99999.97104691756
100000.01131201888
99999.99560390282
100000.00165040295
99999.99931553501
100000.00020652481
99999.9998714057
100000.00000931355
99999.99996828478
99999.9999941574
99999.99999198539
99999.99999778582
99999.99999840926
99999.99999959554
99999.999999779
99999.99999996003
99999.99999997878
99999.99999999869
99999.99999999846
100006.0001984326
99968.23442419218
100102.06998541087
104729.95229135855
127389.47057653799
155868.51483968328
182932.30697647593
99999.12100902836
100000.04595028448
100000.04729157149
99999.9663149558
100000.01693218392
99999.99245968436
100000.00316981801
99999.99867067367
100000.00048449523
99999.99975337177
100000.00004442387
99999.99993885713
99999.99999113854
99999.99998170107
99999.99999403457
99999.99999526088
99999.99999839702
99999.99999911487
99999.99999974914
99999.99999988831
99999.99999997758
99999.9999999905
99999.99999999927
99999.99999999943
100002.05270876494
99996.0024452463
99967.020046421
101306.06737194132
111885.32869200363
141454.04363102076
164553.27825675695
179429.2732210826
99999.4830865169
100000.10908698104
99999.98326965103
99999.99944983306
100000.00222974013
99999.99855928512
100000.00070028334
99999.9996364471
100000.0001029944
99999.99990247203
99999.99999212097
99999.99996597695
99999.99998763642
99999.99998861484
99999.99999526009
99999.999997142
99999.99999893978
99999.99999950828
99999.99999985329
99999.99999994416
99999.99999998805
99999.99999999588
99999.99999999965
99999.9999999999
100000.38968718264
100001.39308144721
99977.6798052415
100266.87932777833
104406.46727585449
122404.20789134223
153953.21753042805
169562.0124458664
176066.98022265773
99999.82382058026
100000.05398731507
99999.98581306623
100000.00319764091
99999.99952128874
99999.99992838588
100000.00006696334
99999.99990074984
99999.99999281361
99999.99995090556
99999.99997926527
99999.99997810926
99999.99998900734
99999.99999260661
99999.99999662183
99999.99999826866
99999.99999933844
99999.99999972896
99999.99999991794
99999.9999999724
99999.99999999399
99999.99999999817
99999.99999999985
99999.99999999993
99999.96927724873
100001.1249130601
99993.06656348958
100029.13180077316
101351.6433510011
110251.27495734005
134867.69658417953
163199.14912180477
171878.58151563283
173448.8271216307
99999.96524494758
100000.01693294621
99999.99411532668
100000.00180551395
99999.99949871397
100000.00008784099
99999.99994792856
99999.99995886961
99999.9999679844
99999.9999674433
99999.99997929968
99999.99998469856
99999.99999152323
99999.99999513394
99999.99999773834
99999.99999895813
99999.9999996045
99999.99999985249
99999.9999999559
99999.9999999866
99999.99999999706
99999.99999999917
99999.99999999994
99999.99999999997
99999.93900351938
100000.41295625668
99998.96335165878
99993.59026406186
100350.07199167387
103915.32012355725
119105.15676531366
147093.4992199312
168911.0765257057
172570.58726565068
171685.00986807
100000.00192687081
100000.00298354917
99999.9983879369
100000.00063134718
99999.99976227856
100000.0000358196
99999.99994354484
99999.9999673919
99999.99996697907
99999.99997495316
99999.99998283274
99999.9999890287
99999.99999390413
99999.99999681572
99999.99999854948
99999.99999938156
99999.99999977152
99999.99999992094
99999.99999997695
99999.99999999351
99999.9999999986
99999.9999999996
100000.0000000001
100000.00000000006
99999.97156074454
100000.08376560689
100000.21771864865
99995.02609339223
100071.02726567272
101306.55348970472
108706.79788850353
130207.23372961998
157206.5350161701
171768.89616552566
172449.40001243056
170659.14526220068
100000.00514863765
99999.99964943649
99999.99979019162
100000.00013284532
99999.99990628351
99999.99998955172
99999.99995383385
99999.99996859708
99999.99997149315
99999.99998010666
99999.9999867805
99999.99999218444
99999.9999958033
99999.99999794929
99999.99999909989
99999.99999963962
99999.99999987183
99999.99999995848
99999.9999999883
99999.99999999699
99999.99999999948
99999.99999999994
100000.00000000004
100000.00000000003
99999.99222264817
99999.99582602923
100000.21713685336
99998.36648859073
100008.17378829235
100382.40098332746
103445.93906763098
116162.4385645263
141909.32265482587
164349.29071105967
172755.6279905842
172022.01463021492
170176.54289087083
100000.0025488174
99999.9994583384
100000.00006358535
99999.99998593538
99999.99995475369
99999.99996964971
99999.99996162855
99999.99997095371
99999.99997672378
99999.99998445947
99999.99999023735
99999.99999454283
99999.99999720308
99999.99999870654
99999.99999945713
99999.99999979434
99999.99999993005
99999.99999997874
99999.99999999438
99999.99999999856
99999.9999999998
99999.99999999994
100000.0000000001
100000.00000000003
99999.99929639667
99999.98812365839
100000.08419556143
99999.71964841217
99998.61748024242
100096.37434558292
101213.77056671793
107416.94622768421
125975.47329326297
152409.56553055084
168666.2041532326
172731.16345342228
171559.6651644408
170040.00169458863
100000.00075568924
99999.99974372641
100000.00004549774
99999.99995897865
99999.99996471868
99999.99996477699
99999.99996710413
99999.99997476733
99999.99998156914
99999.99998821055
99999.99999300983
99999.99999628168
99999.99999818666
99999.99999920244
99999.99999968063
99999.99999988495
99999.99999996269
99999.99999998919
99999.99999999722
99999.99999999942
99999.99999999985
99999.99999999996
100000.00000000003
100000.00000000003
100000.00057951032
99999.99430087348
100000.01814336072
100000.02998370516
99998.79613740728
100019.38709438469
100385.6957224406
103004.84590361966
113725.46677492415
136980.62584851423
160526.60466760703
170847.89372231695
172284.95437104153
171180.99661160295
170089.56169187915
100000.00009364792
99999.99991739482
99999.9999997414
99999.99995949813
99999.99996519767
99999.99996611629
99999.99997183133
99999.9999791438
99999.99998579179
99999.9999913239
99999.99999512863
99999.99999753006
99999.99999885341
99999.99999951934
99999.99999981651
99999.99999993706
99999.9999999805
99999.9999999946
99999.99999999872
99999.99999999974
99999.99999999996
100000.00000000001
100000.00000000003
100000.00000000003
100000.0004041354
99999.99842211403
99999.99966195677
100000.0433799769
99999.58552323253
100002.28514892368
100109.77765470027
101104.2748582387
106314.93369159369
122366.38000407848
147577.65921346986
165977.95584097353
171675.94302937386
171754.7252116449
170916.9080707199
170224.3203342245
99999.99994775388
99999.99997342366
99999.99997454729
99999.99996253666
99999.99996571727
99999.99996968843
99999.99997641337
99999.9999834155
99999.99998933672
99999.99999379636
99999.99999669053
99999.99999839951
99999.99999929215
99999.99999971686
99999.99999989693
99999.99999996652
99999.99999999012
99999.99999999751
99999.99999999948
99999.99999999985
100000.00000000003
100000.00000000003
100000.00000000003
100000.00000000003
100000.00014768456
99999.9998476136
99999.99774677468
100000.01802380392
99999.91998752684
99999.6662501265
100027.18290682326
100372.35624548723
102610.34222144238
111664.90442719629
132582.5874191907
156422.33394140546
169156.0921125785
171778.39951374225
171299.17728489728
170759.64497531747
170369.05371012754
99999.9999454007
99999.99997953302
99999.99996530726
99999.99996480226
99999.99996798173
99999.99997398426
99999.9999808318
99999.99998723254
99999.99999220879
99999.9999956821
99999.99999780623
99999.99999898736
99999.99999957271
99999.99999983689
99999.9999999434
99999.99999998246
99999.99999999513
99999.99999999886
99999.99999999977
100000.00000000001
100000.0
100000.00000000003
100000.00000000003
100000.00000000007
100000.00002539773
100000.00010082203
99999.99889514218
100000.00417476942
100000.00215222231
99999.6862878377
100005.41350010218
100115.0572614163
100991.85913646204
105384.13192444145
119243.85786119483
143037.65604699004
162886.51721201354
170724.5262758133
171568.66807142986
170971.91981017863
170681.2908987099
170497.01906025535
99999.99995895654
99999.99997384445
99999.9999635359
99999.99996715585
99999.99997155048
99999.9999783926
99999.99998489425
99999.99999045147
99999.99999445453
99999.99999706996
99999.99999857998
99999.9999993743
99999.99999974792
99999.99999990813
99999.99999996964
99999.999999991
99999.99999999751
99999.99999999943
99999.99999999988
99999.99999999997
100000.00000000003
100000.00000000003
100000.00000000003
100000.00000000003
99999.99998589321
100000.000058351
99999.99970967637
100000.0000510388
100000.00900297325
99999.88780182625
100000.63721283042
100032.1170194599
100350.26173392258
102263.0761371112
109931.3134939183
128625.16167101856
152359.6159160365
167053.52835100776
171313.28152227472
171280.89638179482
170768.8294795258
170655.26145614483
170590.94754144686
99999.99996463979
99999.99996905551
99999.99996486337
99999.99997019046
99999.99997573056
99999.99998258968
99999.99998844105
99999.99999304915
99999.99999615179
99999.99999805959
99999.99999910165
99999.99999962168
99999.99999985438
99999.99999994918
99999.99999998398
99999.99999999549
99999.999999999
99999.99999999984
99999.99999999997
100000.0
100000.00000000003
100000.00000000003
100000.00000000003
100000.00000000003
99999.9999755598
100000.00000168587
99999.9999909957
99999.99952092313
100000.00417773405
99999.97610418833
99999.90881264275
100007.83799732622
100115.01256733335
100884.12663206054
104598.37681000063
116559.83151543973
138758.29264198884
159666.84612174248
169419.4950787143
171390.8373517447
171025.8031143235
170663.51755843087
170657.44120448543
170651.096794495
99999.99996519934
99999.99996733079
99999.99996763919
99999.99997386754
99999.99997999692
99999.99998637254
99999.99999139723
99999.99999506814
99999.99999739394
99999.99999874443
99999.99999944442
99999.99999977628
99999.99999991768
99999.99999997274
99999.99999999176
99999.9999999978
99999.99999999948
99999.99999999988
100000.00000000003
99999.99999999996
100000.00000000001
100000.00000000003
100000.00000000003
100000.00000000003
99999.99997201677
99999.99997447223
100000.00003277574
99999.99972215055
100000.00114213258
99999.99907389538
99999.91278349703
100001.54160480188
100034.85055540659
100324.10597682657
101961.54891818397
108471.62603866337
125099.17122976364
148338.0055735393
164751.67770188078
170574.89708000052
171253.27382346115
170841.60734852878
170623.7552541261
170670.69533200757
170680.05112686777
99999.9999649726
99999.99996806787
99999.99997122087
99999.99997786892
99999.99998401156
99999.99998962584
99999.99999376302
99999.99999658563
99999.99999827631
99999.9999992057
99999.99999966373
99999.99999987043
99999.99999995445
99999.99999998558
99999.99999999581
99999.99999999894
99999.99999999985
100000.00000000001
100000.00000000001
100000.00000000007
100000.00000000003
100000.00000000003
100000.00000000003
100000.00000000003
99999.99996984698
99999.99996565045
100000.00001340872
99999.99988834144
100000.00015197964
100000.00175044303
99999.96821037645
100000.17717527146
100009.57782385855
100111.64215188171
100784.59167736712
103936.27935390861
114255.07698746563
134776.67838457474
156321.1587984129
167914.59849223407
171017.33379960802
171063.43221830114
170728.52867501474
170621.11889940934
170683.28115600598
170688.31684384955
99999.99996580946
99999.99997040251
99999.99997521978
99999.99998185331
99999.99998757786
99999.99999230934
99999.99999558985
99999.99999769134
99999.99999888527
99999.99999950826
99999.9999998008
99999.99999992663
99999.9999999753
99999.9999999926
99999.99999999796
99999.99999999945
99999.99999999994
100000.00000000003
100000.00000000001
100000.00000000003
100000.00000000003
100000.00000000003
100000.00000000003
100000.00000000003
99999.99996878779
99999.9999638799
99999.99999232146
99999.99995169601
99999.99997521387
100000.00085301591
99999.99298315882
99999.97173423685
100002.30632523219
100035.96867402935
100296.72728574456