# vtk DataFile Version 2.0
JuliaCFD
ASCII
DATASET UNSTRUCTURED_GRID

POINTS 7752 float
0.0 0.0 -0.005
0.02 0.0 -0.005
0.04 0.0 -0.005
0.06 0.0 -0.005
0.08 0.0 -0.005
0.1 0.0 -0.005
0.12 0.0 -0.005
0.14 0.0 -0.005
0.16 0.0 -0.005
0.18 0.0 -0.005
0.2 0.0 -0.005
0.22 0.0 -0.005
0.24 0.0 -0.005
0.26 0.0 -0.005
0.28 0.0 -0.005
0.3 0.0 -0.005
0.32 0.0 -0.005
0.34 0.0 -0.005
0.36 0.0 -0.005
0.38 0.0 -0.005
0.4 0.0 -0.005
0.42 0.0 -0.005
0.44 0.0 -0.005
0.46 0.0 -0.005
0.48 0.0 -0.005
0.5 0.0 -0.005
0.0 0.02 -0.005
0.02 0.02 -0.005
0.04 0.02 -0.005
0.06 0.02 -0.005
0.08 0.02 -0.005
0.1 0.02 -0.005
0.12 0.02 -0.005
0.14 0.02 -0.005
0.16 0.02 -0.005
0.18 0.02 -0.005
0.2 0.02 -0.005
0.22 0.02 -0.005
0.24 0.02 -0.005
0.26 0.02 -0.005
0.28 0.02 -0.005
0.3 0.02 -0.005
0.32 0.02 -0.005
0.34 0.02 -0.005
0.36 0.02 -0.005
0.38 0.02 -0.005
0.4 0.02 -0.005
0.42 0.02 -0.005
0.44 0.02 -0.005
0.46 0.02 -0.005
0.48 0.02 -0.005
0.5 0.02 -0.005
0.0 0.04 -0.005
0.02 0.04 -0.005
0.04 0.04 -0.005
0.06 0.04 -0.005
0.08 0.04 -0.005
0.1 0.04 -0.005
0.12 0.04 -0.005
0.14 0.04 -0.005
0.16 0.04 -0.005
0.18 0.04 -0.005
0.2 0.04 -0.005
0.22 0.04 -0.005
0.24 0.04 -0.005
0.26 0.04 -0.005
0.28 0.04 -0.005
0.3 0.04 -0.005
0.32 0.04 -0.005
0.34 0.04 -0.005
0.36 0.04 -0.005
0.38 0.04 -0.005
0.4 0.04 -0.005
0.42 0.04 -0.005
0.44 0.04 -0.005
0.46 0.04 -0.005
0.48 0.04 -0.005
0.5 0.04 -0.005
0.0 0.06 -0.005
0.02 0.06 -0.005
0.04 0.06 -0.005
0.06 0.06 -0.005
0.08 0.06 -0.005
0.1 0.06 -0.005
0.12 0.06 -0.005
0.14 0.06 -0.005
0.16 0.06 -0.005
0.18 0.06 -0.005
0.2 0.06 -0.005
0.22 0.06 -0.005
0.24 0.06 -0.005
0.26 0.06 -0.005
0.28 0.06 -0.005
0.3 0.06 -0.005
0.32 0.06 -0.005
0.34 0.06 -0.005
0.36 0.06 -0.005
0.38 0.06 -0.005
0.4 0.06 -0.005
0.42 0.06 -0.005
0.44 0.06 -0.005
0.46 0.06 -0.005
0.48 0.06 -0.005
0.5 0.06 -0.005
0.0 0.08 -0.005
0.02 0.08 -0.005
0.04 0.08 -0.005
0.06 0.08 -0.005
0.08 0.08 -0.005
0.1 0.08 -0.005
0.12 0.08 -0.005
0.14 0.08 -0.005
0.16 0.08 -0.005
0.18 0.08 -0.005
0.2 0.08 -0.005
0.22 0.08 -0.005
0.24 0.08 -0.005
0.26 0.08 -0.005
0.28 0.08 -0.005
0.3 0.08 -0.005
0.32 0.08 -0.005
0.34 0.08 -0.005
0.36 0.08 -0.005
0.38 0.08 -0.005
0.4 0.08 -0.005
0.42 0.08 -0.005
0.44 0.08 -0.005
0.46 0.08 -0.005
0.48 0.08 -0.005
0.5 0.08 -0.005
0.0 0.1 -0.005
0.02 0.1 -0.005
0.04 0.1 -0.005
0.06 0.1 -0.005
0.08 0.1 -0.005
0.1 0.1 -0.005
0.12 0.1 -0.005
0.14 0.1 -0.005
0.16 0.1 -0.005
0.18 0.1 -0.005
0.2 0.1 -0.005
0.22 0.1 -0.005
0.24 0.1 -0.005
0.26 0.1 -0.005
0.28 0.1 -0.005
0.3 0.1 -0.005
0.32 0.1 -0.005
0.34 0.1 -0.005
0.36 0.1 -0.005
0.38 0.1 -0.005
0.4 0.1 -0.005
0.42 0.1 -0.005
0.44 0.1 -0.005
0.46 0.1 -0.005
0.48 0.1 -0.005
0.5 0.1 -0.005
0.0 0.12 -0.005
0.02 0.12 -0.005
0.04 0.12 -0.005
0.06 0.12 -0.005
0.08 0.12 -0.005
0.1 0.12 -0.005
0.12 0.12 -0.005
0.14 0.12 -0.005
0.16 0.12 -0.005
0.18 0.12 -0.005
0.2 0.12 -0.005
0.22 0.12 -0.005
0.24 0.12 -0.005
0.26 0.12 -0.005
0.28 0.12 -0.005
0.3 0.12 -0.005
0.32 0.12 -0.005
0.34 0.12 -0.005
0.36 0.12 -0.005
0.38 0.12 -0.005
0.4 0.12 -0.005
0.42 0.12 -0.005
0.44 0.12 -0.005
0.46 0.12 -0.005
0.48 0.12 -0.005
0.5 0.12 -0.005
0.0 0.14 -0.005
0.02 0.14 -0.005
0.04 0.14 -0.005
0.06 0.14 -0.005
0.08 0.14 -0.005
0.1 0.14 -0.005
0.12 0.14 -0.005
0.14 0.14 -0.005
0.16 0.14 -0.005
0.18 0.14 -0.005
0.2 0.14 -0.005
0.22 0.14 -0.005
0.24 0.14 -0.005
0.26 0.14 -0.005
0.28 0.14 -0.005
0.3 0.14 -0.005
0.32 0.14 -0.005
0.34 0.14 -0.005
0.36 0.14 -0.005
0.38 0.14 -0.005
0.4 0.14 -0.005
0.42 0.14 -0.005
0.44 0.14 -0.005
0.46 0.14 -0.005
0.48 0.14 -0.005
0.5 0.14 -0.005
0.0 0.16 -0.005
0.02 0.16 -0.005
0.04 0.16 -0.005
0.06 0.16 -0.005
0.08 0.16 -0.005
0.1 0.16 -0.005
0.12 0.16 -0.005
0.14 0.16 -0.005
0.16 0.16 -0.005
0.18 0.16 -0.005
0.2 0.16 -0.005
0.22 0.16 -0.005
0.24 0.16 -0.005
0.26 0.16 -0.005
0.28 0.16 -0.005
0.3 0.16 -0.005
0.32 0.16 -0.005
0.34 0.16 -0.005
0.36 0.16 -0.005
0.38 0.16 -0.005
0.4 0.16 -0.005
0.42 0.16 -0.005
0.44 0.16 -0.005
0.46 0.16 -0.005
0.48 0.16 -0.005
0.5 0.16 -0.005
0.0 0.18 -0.005
0.02 0.18 -0.005
0.04 0.18 -0.005
0.06 0.18 -0.005
0.08 0.18 -0.005
0.1 0.18 -0.005
0.12 0.18 -0.005
0.14 0.18 -0.005
0.16 0.18 -0.005
0.18 0.18 -0.005
0.2 0.18 -0.005
0.22 0.18 -0.005
0.24 0.18 -0.005
0.26 0.18 -0.005
0.28 0.18 -0.005
0.3 0.18 -0.005
0.32 0.18 -0.005
0.34 0.18 -0.005
0.36 0.18 -0.005
0.38 0.18 -0.005
0.4 0.18 -0.005
0.42 0.18 -0.005
0.44 0.18 -0.005
0.46 0.18 -0.005
0.48 0.18 -0.005
0.5 0.18 -0.005
0.0 0.2 -0.005
0.02 0.2 -0.005
0.04 0.2 -0.005
0.06 0.2 -0.005
0.08 0.2 -0.005
0.1 0.2 -0.005
0.12 0.2 -0.005
0.14 0.2 -0.005
0.16 0.2 -0.005
0.18 0.2 -0.005
0.2 0.2 -0.005
0.22 0.2 -0.005
0.24 0.2 -0.005
0.26 0.2 -0.005
0.28 0.2 -0.005
0.3 0.2 -0.005
0.32 0.2 -0.005
0.34 0.2 -0.005
0.36 0.2 -0.005
0.38 0.2 -0.005
0.4 0.2 -0.005
0.42 0.2 -0.005
0.44 0.2 -0.005
0.46 0.2 -0.005
0.48 0.2 -0.005
0.5 0.2 -0.005
0.0 0.22 -0.005
0.02 0.22 -0.005
0.04 0.22 -0.005
0.06 0.22 -0.005
0.08 0.22 -0.005
0.1 0.22 -0.005
0.12 0.22 -0.005
0.14 0.22 -0.005
0.16 0.22 -0.005
0.18 0.22 -0.005
0.2 0.22 -0.005
0.22 0.22 -0.005
0.24 0.22 -0.005
0.26 0.22 -0.005
0.28 0.22 -0.005
0.3 0.22 -0.005
0.32 0.22 -0.005
0.34 0.22 -0.005
0.36 0.22 -0.005
0.38 0.22 -0.005
0.4 0.22 -0.005
0.42 0.22 -0.005
0.44 0.22 -0.005
0.46 0.22 -0.005
0.48 0.22 -0.005
0.5 0.22 -0.005
0.0 0.24 -0.005
0.02 0.24 -0.005
0.04 0.24 -0.005
0.06 0.24 -0.005
0.08 0.24 -0.005
0.1 0.24 -0.005
0.12 0.24 -0.005
0.14 0.24 -0.005
0.16 0.24 -0.005
0.18 0.24 -0.005
0.2 0.24 -0.005
0.22 0.24 -0.005
0.24 0.24 -0.005
0.26 0.24 -0.005
0.28 0.24 -0.005
0.3 0.24 -0.005
0.32 0.24 -0.005
0.34 0.24 -0.005
0.36 0.24 -0.005
0.38 0.24 -0.005
0.4 0.24 -0.005
0.42 0.24 -0.005
0.44 0.24 -0.005
0.46 0.24 -0.005
0.48 0.24 -0.005
0.5 0.24 -0.005
0.0 0.26 -0.005
0.02 0.26 -0.005
0.04 0.26 -0.005
0.06 0.26 -0.005
0.08 0.26 -0.005
0.1 0.26 -0.005
0.12 0.26 -0.005
0.14 0.26 -0.005
0.16 0.26 -0.005
0.18 0.26 -0.005
0.2 0.26 -0.005
0.22 0.26 -0.005
0.24 0.26 -0.005
0.26 0.26 -0.005
0.28 0.26 -0.005
0.3 0.26 -0.005
0.32 0.26 -0.005
0.34 0.26 -0.005
0.36 0.26 -0.005
0.38 0.26 -0.005
0.4 0.26 -0.005
0.42 0.26 -0.005
0.44 0.26 -0.005
0.46 0.26 -0.005
0.48 0.26 -0.005
0.5 0.26 -0.005
0.0 0.28 -0.005
0.02 0.28 -0.005
0.04 0.28 -0.005
0.06 0.28 -0.005
0.08 0.28 -0.005
0.1 0.28 -0.005
0.12 0.28 -0.005
0.14 0.28 -0.005
0.16 0.28 -0.005
0.18 0.28 -0.005
0.2 0.28 -0.005
0.22 0.28 -0.005
0.24 0.28 -0.005
0.26 0.28 -0.005
0.28 0.28 -0.005
0.3 0.28 -0.005
0.32 0.28 -0.005
0.34 0.28 -0.005
0.36 0.28 -0.005
0.38 0.28 -0.005
0.4 0.28 -0.005
0.42 0.28 -0.005
0.44 0.28 -0.005
0.46 0.28 -0.005
0.48 0.28 -0.005
0.5 0.28 -0.005
0.0 0.3 -0.005
0.02 0.3 -0.005
0.04 0.3 -0.005
0.06 0.3 -0.005
0.08 0.3 -0.005
0.1 0.3 -0.005
0.12 0.3 -0.005
0.14 0.3 -0.005
0.16 0.3 -0.005
0.18 0.3 -0.005
0.2 0.3 -0.005
0.22 0.3 -0.005
0.24 0.3 -0.005
0.26 0.3 -0.005
0.28 0.3 -0.005
0.3 0.3 -0.005
0.32 0.3 -0.005
0.34 0.3 -0.005
0.36 0.3 -0.005
0.38 0.3 -0.005
0.4 0.3 -0.005
0.42 0.3 -0.005
0.44 0.3 -0.005
0.46 0.3 -0.005
0.48 0.3 -0.005
0.5 0.3 -0.005
0.0 0.32 -0.005
0.02 0.32 -0.005
0.04 0.32 -0.005
0.06 0.32 -0.005
0.08 0.32 -0.005
0.1 0.32 -0.005
0.12 0.32 -0.005
0.14 0.32 -0.005
0.16 0.32 -0.005
0.18 0.32 -0.005
0.2 0.32 -0.005
0.22 0.32 -0.005
0.24 0.32 -0.005
0.26 0.32 -0.005
0.28 0.32 -0.005
0.3 0.32 -0.005
0.32 0.32 -0.005
0.34 0.32 -0.005
0.36 0.32 -0.005
0.38 0.32 -0.005
0.4 0.32 -0.005
0.42 0.32 -0.005
0.44 0.32 -0.005
0.46 0.32 -0.005
0.48 0.32 -0.005
0.5 0.32 -0.005
0.0 0.34 -0.005
0.02 0.34 -0.005
0.04 0.34 -0.005
0.06 0.34 -0.005
0.08 0.34 -0.005
0.1 0.34 -0.005
0.12 0.34 -0.005
0.14 0.34 -0.005
0.16 0.34 -0.005
0.18 0.34 -0.005
0.2 0.34 -0.005
0.22 0.34 -0.005
0.24 0.34 -0.005
0.26 0.34 -0.005
0.28 0.34 -0.005
0.3 0.34 -0.005
0.32 0.34 -0.005
0.34 0.34 -0.005
0.36 0.34 -0.005
0.38 0.34 -0.005
0.4 0.34 -0.005
0.42 0.34 -0.005
0.44 0.34 -0.005
0.46 0.34 -0.005
0.48 0.34 -0.005
0.5 0.34 -0.005
0.0 0.36 -0.005
0.02 0.36 -0.005
0.04 0.36 -0.005
0.06 0.36 -0.005
0.08 0.36 -0.005
0.1 0.36 -0.005
0.12 0.36 -0.005
0.14 0.36 -0.005
0.16 0.36 -0.005
0.18 0.36 -0.005
0.2 0.36 -0.005
0.22 0.36 -0.005
0.24 0.36 -0.005
0.26 0.36 -0.005
0.28 0.36 -0.005
0.3 0.36 -0.005
0.32 0.36 -0.005
0.34 0.36 -0.005
0.36 0.36 -0.005
0.38 0.36 -0.005
0.4 0.36 -0.005
0.42 0.36 -0.005
0.44 0.36 -0.005
0.46 0.36 -0.005
0.48 0.36 -0.005
0.5 0.36 -0.005
0.0 0.38 -0.005
0.02 0.38 -0.005
0.04 0.38 -0.005
0.06 0.38 -0.005
0.08 0.38 -0.005
0.1 0.38 -0.005
0.12 0.38 -0.005
0.14 0.38 -0.005
0.16 0.38 -0.005
0.18 0.38 -0.005
0.2 0.38 -0.005
0.22 0.38 -0.005
0.24 0.38 -0.005
0.26 0.38 -0.005
0.28 0.38 -0.005
0.3 0.38 -0.005
0.32 0.38 -0.005
0.34 0.38 -0.005
0.36 0.38 -0.005
0.38 0.38 -0.005
0.4 0.38 -0.005
0.42 0.38 -0.005
0.44 0.38 -0.005
0.46 0.38 -0.005
0.48 0.38 -0.005
0.5 0.38 -0.005
0.0 0.4 -0.005
0.02 0.4 -0.005
0.04 0.4 -0.005
0.06 0.4 -0.005
0.08 0.4 -0.005
0.1 0.4 -0.005
0.12 0.4 -0.005
0.14 0.4 -0.005
0.16 0.4 -0.005
0.18 0.4 -0.005
0.2 0.4 -0.005
0.22 0.4 -0.005
0.24 0.4 -0.005
0.26 0.4 -0.005
0.28 0.4 -0.005
0.3 0.4 -0.005
0.32 0.4 -0.005
0.34 0.4 -0.005
0.36 0.4 -0.005
0.38 0.4 -0.005
0.4 0.4 -0.005
0.42 0.4 -0.005
0.44 0.4 -0.005
0.46 0.4 -0.005
0.48 0.4 -0.005
0.5 0.4 -0.005
0.0 0.42 -0.005
0.02 0.42 -0.005
0.04 0.42 -0.005
0.06 0.42 -0.005
0.08 0.42 -0.005
0.1 0.42 -0.005
0.12 0.42 -0.005
0.14 0.42 -0.005
0.16 0.42 -0.005
0.18 0.42 -0.005
0.2 0.42 -0.005
0.22 0.42 -0.005
0.24 0.42 -0.005
0.26 0.42 -0.005
0.28 0.42 -0.005
0.3 0.42 -0.005
0.32 0.42 -0.005
0.34 0.42 -0.005
0.36 0.42 -0.005
0.38 0.42 -0.005
0.4 0.42 -0.005
0.42 0.42 -0.005
0.44 0.42 -0.005
0.46 0.42 -0.005
0.48 0.42 -0.005
0.5 0.42 -0.005
0.0 0.44 -0.005
0.02 0.44 -0.005
0.04 0.44 -0.005
0.06 0.44 -0.005
0.08 0.44 -0.005
0.1 0.44 -0.005
0.12 0.44 -0.005
0.14 0.44 -0.005
0.16 0.44 -0.005
0.18 0.44 -0.005
0.2 0.44 -0.005
0.22 0.44 -0.005
0.24 0.44 -0.005
0.26 0.44 -0.005
0.28 0.44 -0.005
0.3 0.44 -0.005
0.32 0.44 -0.005
0.34 0.44 -0.005
0.36 0.44 -0.005
0.38 0.44 -0.005
0.4 0.44 -0.005
0.42 0.44 -0.005
0.44 0.44 -0.005
0.46 0.44 -0.005
0.48 0.44 -0.005
0.5 0.44 -0.005
[...]
CELL_DATA 3750
SCALARS P float 1
LOOKUP_TABLE default
99999.9963327419
100000.00635933547
99999.99636858945
99999.98973421608
100000.0062559274
99999.99665134047
100000.01735534417
99999.98985742981
100000.00572154747
99999.99702177242
99999.9714612135
100000.01711285702
99999.99072528552
100000.00501646903
99999.99745618363
100000.04774309583
99999.971798366
100000.01556739528
99999.99186284751
100000.00420021705
99999.99791088527
99999.92087795088
100000.04720836469
99999.97441986934
100000.01354346646
99999.99317922024
100000.00336302497
99999.99834911602
100000.1318947521
99999.92157868367
100000.04262507673
99999.97783869084
100000.0112177659
99999.99452674476
100000.00257770832
99999.99874335386
99999.78076992638
100000.13109922613
99999.92950555998
100000.03666595276
99999.98174944891
100000.0088622264
99999.99578891121
100000.0018939289
99999.99907751096
100000.36505204566
99999.78114859003
100000.11723465995
99999.93976330789
100000.0298918383
99999.98567639821
100000.00668677047
99999.9968874623
100000.00133569565
99999.99934612797
99999.3926912307
100000.36658607534
99999.80544097144
100000.09938729365
99999.95134570071
100000.02315870683
99999.98926492057
100000.00482621187
99999.99778554201
100000.00090536753
99999.99955193851
100001.01073655435
99999.38521817811
100000.32369474496
99999.83648879081
100000.0793902455
99999.96272445741
100000.01708436495
99999.99229849144
100000.0033369647
99999.99848045663
100000.00059049496
99999.99970282789
99998.3184349068
100001.0340779151
99999.46145962359
100000.26936922691
99999.87095483083
100000.05999093056
99999.97284299816
100000.01202648053
99999.99469819592
100000.00221312887
99999.99899239928
100000.00037093762
99999.99980901935
100002.79815327693
99998.25613989346
100000.89736300192
99999.55689022668
100000.20972223776
99999.90390163343
100000.04300245974
99999.98113193107
100000.00809419955
99999.99648917138
100000.00140928576
99999.99935316038
100000.00022459478
99999.99988094947
99995.34181572121
100002.95067401609
99998.50360653321
100000.72878588985
99999.66025676297
100000.15363055229
99999.93224786819
100000.02932469471
99999.98746402733
100000.00521680748
99999.9977582438
100000.000862164
99999.9995972803
100000.0001311343
99999.99992794776
100007.76642133828
99994.99054681606
100002.49824168916
99998.80311923743
100000.54920608939
99999.75564122268
100000.10629076412
99999.95462259768
100000.01907214892
99999.99201395652
100000.00322359127
99999.99861637587
100000.00050678938
99999.99975642408
100000.00007384398
99999.99995762474
99987.00928127523
100008.53368837434
99995.82571108242
100001.9626893969
99999.11564612683
100000.38700907255
99999.83440023942
100000.06970649086
99999.97103905838
100000.0118547767
99999.99510915713
100000.00191091665
99999.99917247628
100000.00028607606
99999.99985665505
100000.000040095
99999.99997576405
100021.870523743
99985.42075895502
100006.9792422806
99996.78968036464
100001.41799419625
99999.39106527015
100000.25629975798
99999.8938274688
100000.04346652776
99999.98233690072
100000.0070530891
99999.99711285198
100000.00108654513
99999.99951915424
100000.00015485898
99999.99991779425
100000.00002097567
99999.99998651097
99962.75869372752
100024.94589955774
99988.32910167602
100005.23270141243
99997.73968661355
100000.95124346449
99999.6070025957
100000.16021957005
99999.9353750066
100000.02583628485
99999.98967851508
100000.00401997774
99999.99835248657
100000.00059189202
99999.99972779288
100000.00008016962
99999.9999539938
100000.00001055791
99999.99999268951
100064.67348298704
99957.34011656781
100019.50129364357
99991.51303277696
100003.57645389087
99998.52811887352
100000.59641265827
99999.76114639638
100000.09488220062
99999.96254533151
100000.01466593659
99999.99420623283
100000.00219477889
99999.99908823366
100000.00030805595
99999.9998494208
100000.00003950157
99999.99997483961
100000.00000510078
99999.99999614037
99884.06085778365
100072.59653117067
99967.4646568636
100013.66759434901
99994.3955961702
100002.25107462559
99999.10695817582
100000.35123577097
99999.86276607164
100000.0533791349
99999.97927795524
100000.00795926272
99999.99686714329
100000.00114618543
99999.99950869703
100000.00015236899
99999.99991833942
100000.00001836877
99999.99998653674
100000.00000235612
99999.99999801409
100219.5627175354
99877.476999728
100054.08229030894
99978.1954843324
100008.67018692497
99996.6085733021
100001.31566349739
99999.49254474614
100000.1950501975
99999.92523973311
100000.0285863285
99999.98903050285
100000.00413000776
99999.99836254847
100000.00057047412
99999.99974095677
100000.00007090897
99999.99995643436
100000.00000793618
99999.99999294268
100000.00000103399
99999.99999900383
99538.62707612319
100203.72885356672
99910.38392089053
100034.31510536732
99986.81040314946
100005.01100763149
99998.101815148
100000.71772284484
99999.72887926451
100000.10242617445
99999.96129568914
100000.01458998141
99999.99443052284
100000.0020459125
99999.99916885929
100000.00026856372
99999.99986552451
100000.0000304421
99999.99997705409
100000.00000308415
99999.99999637221
100000.00000042644
99999.99999951267
101183.81670607878
99659.01203516549
100147.71172533992
99946.8949832485
100019.60153886021
99992.78361166875
100002.66584140179
99999.01249037166
100000.3668371791
99999.86343992612
100000.05095509214
99999.9809229739
100000.00709707483
99999.99727949913
100000.00096343676
99999.99958750326
100000.00011774836
99999.99993074899
100000.0000115331
99999.99998802722
100000.00000099141
99999.99999816944
100000.00000016192
99999.99999976752
95614.72923981491
100604.33047187014
99754.87157622693
100080.15819444285
99971.78180940424
100010.02930508919
99996.38875707182
100001.31112861396
99999.52087107835
100000.17605606499
99999.93504994754
100000.02403320486
99999.99103331471
100000.00328447434
99999.99871540244
100000.00042711388
99999.9997978035
100000.00004644641
99999.99996432285
100000.00000337572
99999.99999379227
100000.00000018188
99999.99999909253
100000.00000005422
99999.9999998918
98638.74438440532
128625.3631209287
100408.95906202133
99882.9263882189
100038.65888645807
99986.75696527403
100004.65007869981
99998.34201026992
100000.5976079838
99999.78289987556
100000.07939980539
99999.97081134882
100000.01074045547
99999.99597241306
100000.00143865755
99999.99940870263
100000.0001743905
99999.99990071998
100000.00001497868
99999.99998145856
100000.00000026033
99999.99999679426
99999.99999992429
99999.99999955772
100000.00000001409
99999.99999995084
99354.45074132986
103341.6964110919
156262.57932422188
100157.64587126784
99951.41268818776
100016.09010537766
99994.45329387809
100001.95450054105
99999.30135151933
100000.25235355848
99999.90818409434
100000.0336194739
99999.98760672363
100000.00453494597
99999.99826398943
100000.00058887948
99999.99973069194
100000.00006200964
99999.9999503071
100000.00000240757
99999.999990216
99999.999999329
99999.99999834906
99999.99999987925
99999.99999978807
100000.00000000103
99999.99999997829
99853.2774465919
100321.01124418231
113952.95731818289
174650.40695011834
100049.10456872004
99983.38557457196
100005.79628865799
99997.9396824617
100000.7414265951
99999.73088232036
100000.0983886337
99999.96385936397
100000.01332255556
99999.99502949197
100000.00179537208
99999.99927499023
100000.0002181221
99999.99987559303
100000.00001570527
99999.99997420055
99999.99999822231
99999.99999474188
99999.9999992377
99999.99999915177
99999.99999990073
99999.99999989994
99999.99999999805
99999.99999999072
99988.34248384633
99806.8398632374
105123.73077172342
128387.2506898197
183458.70446054783
100010.46066506123
99995.5049466293
100001.7549948248
99999.33398615498
100000.25043056131
99999.90619878328
100000.03513822361
99999.98683540932
100000.00490535799
99999.99811367034
100000.00065352346
99999.99970004274
100000.00006626899
99999.99993968294
99999.99999882605
99999.99998595366
99999.99999742465
99999.99999712552
99999.99999940181
99999.99999956589
99999.9999999337
99999.99999995368
99999.99999999812
99999.99999999617
100009.29699610994
99889.20868485277
101016.50137385905
114466.18215119245
143335.90655368555
185120.27061333242
100000.45393773454
99999.21894969854
100000.40851499794
99999.82171777474
100000.07299667274
99999.9710469185
100000.01131201837
99999.99560390325
100000.00165040273
99999.99931553511
100000.00020652474
99999.99987140586
100000.0000093136
99999.99996828499
99999.99999415748
99999.99999198533
99999.99999778582
99999.99999840934
99999.99999959568
99999.99999977899
99999.99999996019
99999.99999997897
99999.9999999986
99999.9999999984
100006.00019845019
99968.23442419471
100102.06998545541
104729.9522914655
127389.47057698629
155868.5148407695
182932.3069784438
99999.1210090223
100000.04595029043
100000.04729156781
99999.96631495802
100000.01693218268
99999.9924596851
100000.00316981754
99999.99867067391
100000.00048449502
99999.99975337187
100000.00004442385
99999.9999388572
99999.99999113845
99999.99998170101
99999.99999403462
99999.99999526078
99999.99999839709
99999.99999911498
99999.99999974904
99999.99999988839
99999.99999997772
99999.99999999056
99999.99999999927
99999.99999999945
100002.05270878185
99996.00244524228
99967.02004646718
101306.06737199717
111885.32869229632
141454.04363201946
164553.2782591128
179429.2732285539
99999.48308650975
100000.10908698635
99999.98326964756
99999.99944983498
100000.00222973895
99999.99855928571
100000.0007002831
99999.99963644733
100000.00010299434
99999.99990247228
99999.99999212105
99999.99996597707
99999.99998763645
99999.99998861481
99999.9999952601
99999.99999714212
99999.99999893973
99999.99999950835
99999.99999985317
99999.99999994418
99999.9999999882
99999.99999999591
99999.99999999959
99999.99999999993
100000.38968719832
100001.39308143794
99977.67980528821
100266.87932780388
104406.46727604055
122404.20789204692
153953.21753270164
169562.01245485345
176066.98025493135
99999.82382057272
100000.05398731957
99999.98581306319
100000.00319764248
99999.99952128773
99999.99992838643
100000.00006696305
99999.99990075006
99999.99999281342
99999.9999509057
99999.99997926514
99999.99997810928
99999.99998900738
99999.99999260655
99999.99999662157
99999.99999826877
99999.99999933848
99999.99999972899
99999.99999991791
99999.99999997238
99999.99999999398
99999.99999999814
99999.99999999984
100000.00000000001
99999.96927726193
100001.12491304721
99993.066563534
100029.13180077748
101351.6433511395
110251.27495774592
134867.69658584922
163199.14913092463
171878.58155515566
173448.82726387892
99999.96524493999
100000.01693294973
99999.99411532388
100000.00180551514
99999.99949871315
100000.00008784136
99999.99994792831
99999.99995886968
99999.99996798442
99999.99996744336
99999.99997929957
99999.99998469854
99999.99999152325
99999.99999513404
99999.99999773828
99999.99999895827
99999.99999960444
99999.99999985246
99999.99999995583
99999.9999999866
99999.99999999722
99999.99999999923
99999.99999999994
100000.0
99999.9390035296
100000.4129562414
99998.96335169802
99993.59026405003
100350.0719917956
103915.32012374922
119105.15676634182
147093.49922685136
168911.07656837258
172570.58743851382
171685.0104401366
100000.00192686361
100000.00298355184
99999.99838793447
100000.00063134801
99999.99976227776
100000.00003581995
99999.99994354472
99999.99996739198
99999.99996697904
99999.99997495316
99999.99998283273
99999.99998902866
99999.99999390413
99999.9999968157
99999.99999854936
99999.99999938173
99999.99999977146
99999.99999992098
99999.99999997692
99999.9999999935
99999.9999999986
99999.99999999965
100000.00000000012
100000.00000000006
99999.97156075163
100000.08376559093
100000.21771868077
99995.02609336896
100071.02726578424
101306.55348977106
108706.79788913643
130207.23373331124
157206.5350537667
171768.89635696035
172449.40069772798
170659.14735710277
100000.00514863097
99999.99964943828
99999.99979018945
100000.00013284602
99999.99990628278
99999.99998955205
99999.99995383366
99999.99996859723
99999.99997149312
99999.9999801067
99999.99998678043
99999.9999921845
99999.99999580329
99999.99999794927
99999.9999991
99999.99999963962
99999.99999987181
99999.99999995856
99999.99999998833
99999.99999999709
99999.99999999948
99999.9999999998
100000.00000000007
100000.0
99999.99222265236
99999.995826013
100000.21713687664
99998.36648856002
100008.17378838996
100382.40098332512
103445.93906806016
116162.4385659646
141909.32267931258
164349.29089855787
172755.6287524072
172022.01710153776
170176.54987237765
100000.00254881123
99999.99945833955
100000.00006358349
99999.99998593603
99999.99995475315
99999.99996964983
99999.99996162823
99999.99997095381
99999.9999767238
99999.99998445959
99999.99999023721
99999.99999454287
99999.99999720327
99999.9999987065
99999.99999945701
99999.99999979413
99999.99999992999
99999.99999997861
99999.99999999435
99999.99999999859
99999.99999999978
99999.99999999988
100000.00000000004
100000.00000000003
99999.99929639827
99999.98812364222
100000.08419557563
99999.71964837734
99998.6174803206
100096.37434554289
101213.77056703837
107416.94622821579
125975.47330380295
152409.56568051386
168666.20494070402
172731.1661865069
171559.67329227866
170040.02302389342
100000.00075568362
99999.99974372704
100000.00004549621
99999.99995897908
99999.99996471827
99999.99996477712
99999.99996710385
99999.99997476728
99999.99998156907
99999.99998821059
99999.99999300968
99999.99999628184
99999.99999818669
99999.99999920241
99999.99999968063
99999.99999988505
99999.99999996262
99999.99999998916
99999.99999999734
99999.99999999942
99999.99999999988
99999.99999999996
100000.00000000001
100000.00000000003
100000.00057950975
99999.99430085775
100000.0181433665
100000.02998366814
99998.7961374624
100019.38709432441
100385.69572269417
103004.84590379434
113725.46677805348
136980.62593534437
160526.60538786277
170847.89661047762
172284.96328637598
171181.0211823858
170089.62178638126
100000.00009364265
99999.99991739502
99999.99999974003
99999.99995949837
99999.9999651973
99999.99996611639
99999.99997183123
99999.99997914383
99999.99998579179
99999.999991324
99999.99999512851
99999.99999753007
99999.99999885345
99999.99999951938
99999.99999981647
99999.99999993708
99999.9999999805
99999.99999999472
99999.99999999872
99999.99999999977
100000.00000000003
99999.99999999996
100000.00000000003
100000.00000000003
100000.00040413346
99999.99842209843
99999.99966195502
100000.04337993843
99999.58552326374
100002.28514885265
100109.77765489614
101104.2748582265
106314.9336927547
122366.38003622723
147577.6597456301
165977.95867596628
171675.9525212537
171754.75195042047
170916.9767419501
170224.47751287906
99999.99994774912
99999.9999734236
99999.99997454617
99999.99996253698
99999.99996571703
99999.99996968855
99999.99997641335
99999.99998341569
99999.99998933687
99999.99999379623
99999.99999669057
99999.99999839951
99999.9999992922
99999.999999717
99999.99999989691
99999.99999996643
99999.99999999013
99999.99999999751
99999.99999999943
99999.99999999983
100000.00000000001
100000.00000000003
100000.00000000003
100000.00000000003
100000.00014768158
99999.99984759824
99999.99774676676
100000.01802376441
99999.91998753535
99999.66625004934
100027.1829069602
100372.35624538762
102610.34222222836
111664.90443374755
132582.58770562737
156422.33637594443
169156.1017481913
171778.42800071905
171299.2515190197
170759.8234556974
170369.43748390648
99999.99994539632
99999.99997953272
99999.99996530617
99999.99996480244
99999.99996798145
99999.99997398445
99999.99998083168
99999.99998723246
99999.9999922088
99999.99999568205
99999.9999978063
99999.99999898754
99999.99999957276
99999.99999983686
99999.99999994336
99999.99999998245
99999.99999999507
99999.99999999884
99999.99999999977
100000.00000000006
100000.00000000003
100000.0
100000.00000000003
100000.00000000007
100000.00002539389
100000.00010080694
99999.9988951297
100000.00417472889
100000.00215221089
99999.68628775612
100005.41350018026
100115.05726128424
100991.85913702729
105384.13192494832
119243.85796224179
143037.65773019375
162886.52623533193
170724.55561372367
171568.74699488946
170972.11171258116
170681.7244711188
170497.89851422427
99999.99995895244
99999.99997384414
99999.9999635351
99999.99996715588
99999.99997155025
99999.99997839252
99999.99998489415
99999.99999045153
99999.99999445457
99999.99999707006
99999.99999857995
99999.99999937417
99999.99999974799
99999.99999990808
99999.99999996951
99999.99999999093
99999.99999999763
99999.99999999942
99999.99999999985
99999.9999999999
99999.99999999996
100000.00000000001
100000.00000000003
100000.00000000003
99999.99998588898
100000.00005833627
99999.9997096606
100000.00005099719
100000.0090029455
99999.88780174045
100000.63721285328
100032.11701931582
100350.26173429379
102263.07613701446
109931.31351515447
128625.16252253248
152359.6232701104
167053.5570863396
171313.36328418565
171281.09984868285
170769.29362554793
170656.25056835485
170592.84776526265
99999.99996463611
99999.99996905516
99999.99996486265
99999.99997019058
99999.9999757303
99999.99998258968
99999.99998844099
99999.9999930491
99999.99999615176
99999.99999805957
99999.99999910183
99999.99999962177
99999.9999998544
99999.99999994936
99999.99999998405
99999.99999999558
99999.99999999897
99999.99999999987
99999.99999999997
99999.99999999996
100000.00000000003
100000.00000000001
100000.00000000003
100000.00000000003
99999.9999755554
100000.00000167167
99999.99999097797
99999.99952088077
100000.00417769393
99999.97610409757
99999.90881261714
100007.8379971757
100115.01256754872
100884.12663191155
104598.37681274068
116559.83180324297
138758.29745172683
159666.8719705086
169419.5769366308
171391.04852074024
171026.29396094554
170664.57254481636
170659.5693823704
170654.98454264703
99999.99996519588
99999.99996733032
99999.99996763859
99999.99997386761
99999.99997999679
99999.99998637273
99999.99999139717
99999.99999506817
99999.99999739396
99999.9999987445
99999.99999944455
99999.99999977637
99999.99999991775
99999.9999999726
99999.99999999168
99999.99999999785
99999.99999999948
100000.00000000015
100000.00000000001
100000.0
100000.00000000003
100000.00000000003
100000.00000000003
100000.00000000003
99999.99997201252
99999.9999744588
100000.00003275699
99999.99972210778
100000.00114208336
99999.99907379942
99999.91278343185
100001.54160464389
100034.85055549131
100324.10597662085
101961.54891897253
108471.62609719389
125099.17355411912
148338.02566804827
164751.7555095718
170575.11069474867
171253.78330747655
170842.72053352857
170626.01775584457
170675.03152407383
170687.61092621984
99999.99996496979
99999.99996806742
99999.99997122033
99999.99997786903
99999.99998401156
99999.99998962591
99999.99999376305
99999.99999658566
99999.99999827628
99999.99999920573
99999.99999966384
99999.99999987055
99999.99999995451
99999.99999998548
99999.99999999584
99999.99999999897
99999.99999999987
100000.00000000009
100000.00000000015
100000.00000000007
100000.00000000003
100000.00000000003
100000.00000000003
100000.00000000003
99999.99996984279
99999.99996563805
100000.00001338965
99999.99988829922
100000.00015192438
100000.00175034246
99999.96821028033
100000.17717510165
100009.5778238321
100111.64215165075
100784.59167798811
103936.27935886424
114255.07776271887
134776.6908945763
156321.22632818052
167914.8074529955
171017.85191567906
171064.5871763331
170730.9113439079
170625.71454162686
170691.67804006778
170702.3365930547
99999.99996580696
99999.99997040196
99999.9999752193
99999.99998185331
99999.99998757782
99999.99999230936
99999.9999955897
99999.99999769148
99999.99999888541
99999.99999950825
99999.99999980083
99999.99999992653
99999.99999997526
99999.99999999255
99999.99999999786
99999.99999999953
100000.0
100000.00000000009
100000.00000000001
100000.00000000003
100000.00000000003
100000.00000000003
100000.00000000003
100000.00000000003
99999.99996878378
99999.99996386857
99999.99999230272
99999.99995165502
99999.99997515528
100000.00085291198
99999.99298303961
99999.97173405236
100002.3063251161
100035.96867379021
100296.72728607949
101701.53640501566