# vtk DataFile Version 2.0
JuliaCFD
ASCII
DATASET UNSTRUCTURED_GRID

POINTS 1900 float
0.0 0.0 0.005
0.0 0.0416667 0.005
0.0 0.0833333 0.005
0.0 0.125 0.005
0.0 0.166667 0.005
0.0 0.208333 0.005
0.0 0.25 0.005
0.0 0.291667 0.005
0.0 0.333333 0.005
0.0 0.375 0.005
0.0 0.416667 0.005
0.0 0.458333 0.005
0.0 0.5 0.005
0.0 0.541667 0.005
0.0 0.583333 0.005
0.0 0.625 0.005
0.0 0.666667 0.005
0.0 0.708333 0.005
0.0 0.75 0.005
0.0 0.791667 0.005
0.0 0.833333 0.005
0.0 0.875 0.005
0.0 0.916667 0.005
0.0 0.958333 0.005
0.0 1.0 0.005
0.0409575 0.0 0.005
0.0409401 0.0416667 0.005
0.0409227 0.0833333 0.005
0.0409054 0.125 0.005
0.040888 0.166667 0.005
0.0408706 0.208333 0.005
0.0408532 0.25 0.005
0.0408359 0.291667 0.005
0.0408185 0.333333 0.005
0.0408011 0.375 0.005
0.0407838 0.416667 0.005
0.0407664 0.458333 0.005
0.040749 0.5 0.005
0.0407316 0.541667 0.005
0.0407143 0.583333 0.005
0.0406969 0.625 0.005
0.0406795 0.666667 0.005
0.0406621 0.708333 0.005
0.0406448 0.75 0.005
0.0406274 0.791667 0.005
0.04061 0.833333 0.005
0.0405927 0.875 0.005
0.0405753 0.916667 0.005
0.0405579 0.958333 0.005
0.0405405 1.0 0.005
0.0819149 0.0 0.005
0.0818802 0.0416667 0.005
0.0818455 0.0833333 0.005
0.0818107 0.125 0.005
0.081776 0.166667 0.005
0.0817412 0.208333 0.005
0.0817065 0.25 0.005
0.0816717 0.291667 0.005
0.081637 0.333333 0.005
0.0816022 0.375 0.005
0.0815675 0.416667 0.005
0.0815328 0.458333 0.005
0.081498 0.5 0.005
0.0814633 0.541667 0.005
0.0814285 0.583333 0.005
0.0813938 0.625 0.005
0.081359 0.666667 0.005
0.0813243 0.708333 0.005
0.0812895 0.75 0.005
0.0812548 0.791667 0.005
0.0812201 0.833333 0.005
0.0811853 0.875 0.005
0.0811506 0.916667 0.005
0.0811158 0.958333 0.005
0.0810811 1.0 0.005
0.122872 0.0 0.005
0.12282 0.0416667 0.005
0.122768 0.0833333 0.005
0.122716 0.125 0.005
0.122664 0.166667 0.005
0.122612 0.208333 0.005
0.12256 0.25 0.005
0.122508 0.291667 0.005
0.122455 0.333333 0.005
0.122403 0.375 0.005
0.122351 0.416667 0.005
0.122299 0.458333 0.005
0.122247 0.5 0.005
0.122195 0.541667 0.005
0.122143 0.583333 0.005
0.122091 0.625 0.005
0.122039 0.666667 0.005
0.121986 0.708333 0.005
0.121934 0.75 0.005
0.121882 0.791667 0.005
0.12183 0.833333 0.005
0.121778 0.875 0.005
0.121726 0.916667 0.005
0.121674 0.958333 0.005
0.121622 1.0 0.005
0.16383 0.0 0.005
0.16376 0.0416667 0.005
0.163691 0.0833333 0.005
0.163621 0.125 0.005
0.163552 0.166667 0.005
0.163482 0.208333 0.005
0.163413 0.25 0.005
0.163343 0.291667 0.005
0.163274 0.333333 0.005
0.163204 0.375 0.005
0.163135 0.416667 0.005
0.163066 0.458333 0.005
0.162996 0.5 0.005
0.162927 0.541667 0.005
0.162857 0.583333 0.005
0.162788 0.625 0.005
0.162718 0.666667 0.005
0.162649 0.708333 0.005
0.162579 0.75 0.005
0.16251 0.791667 0.005
0.16244 0.833333 0.005
0.162371 0.875 0.005
0.162301 0.916667 0.005
0.162232 0.958333 0.005
0.162162 1.0 0.005
0.204787 0.0 0.005
0.2047 0.0416667 0.005
0.204614 0.0833333 0.005
0.204527 0.125 0.005
0.20444 0.166667 0.005
0.204353 0.208333 0.005
0.204266 0.25 0.005
0.204179 0.291667 0.005
0.204092 0.333333 0.005
0.204006 0.375 0.005
0.203919 0.416667 0.005
0.203832 0.458333 0.005
0.203745 0.5 0.005
0.203658 0.541667 0.005
0.203571 0.583333 0.005
0.203484 0.625 0.005
0.203398 0.666667 0.005
0.203311 0.708333 0.005
0.203224 0.75 0.005
0.203137 0.791667 0.005
0.20305 0.833333 0.005
0.202963 0.875 0.005
0.202876 0.916667 0.005
0.20279 0.958333 0.005
0.202703 1.0 0.005
0.245745 0.0 0.005
0.245641 0.0416667 0.005
0.245536 0.0833333 0.005
0.245432 0.125 0.005
0.245328 0.166667 0.005
0.245224 0.208333 0.005
0.245119 0.25 0.005
0.245015 0.291667 0.005
0.244911 0.333333 0.005
0.244807 0.375 0.005
0.244703 0.416667 0.005
0.244598 0.458333 0.005
0.244494 0.5 0.005
0.24439 0.541667 0.005
0.244286 0.583333 0.005
0.244181 0.625 0.005
0.244077 0.666667 0.005
0.243973 0.708333 0.005
0.243869 0.75 0.005
0.243764 0.791667 0.005
0.24366 0.833333 0.005
0.243556 0.875 0.005
0.243452 0.916667 0.005
0.243347 0.958333 0.005
0.243243 1.0 0.005
0.286702 0.0 0.005
0.286581 0.0416667 0.005
0.286459 0.0833333 0.005
0.286337 0.125 0.005
0.286216 0.166667 0.005
0.286094 0.208333 0.005
0.285973 0.25 0.005
0.285851 0.291667 0.005
0.285729 0.333333 0.005
0.285608 0.375 0.005
0.285486 0.416667 0.005
0.285365 0.458333 0.005
0.285243 0.5 0.005
0.285121 0.541667 0.005
0.285 0.583333 0.005
0.284878 0.625 0.005
0.284757 0.666667 0.005
0.284635 0.708333 0.005
0.284513 0.75 0.005
0.284392 0.791667 0.005
0.28427 0.833333 0.005
0.284149 0.875 0.005
0.284027 0.916667 0.005
0.283905 0.958333 0.005
0.283784 1.0 0.005
0.32766 0.0 0.005
0.327521 0.0416667 0.005
0.327382 0.0833333 0.005
0.327243 0.125 0.005
0.327104 0.166667 0.005
0.326965 0.208333 0.005
0.326826 0.25 0.005
0.326687 0.291667 0.005
0.326548 0.333333 0.005
0.326409 0.375 0.005
0.32627 0.416667 0.005
0.326131 0.458333 0.005
0.325992 0.5 0.005
0.325853 0.541667 0.005
0.325714 0.583333 0.005
0.325575 0.625 0.005
0.325436 0.666667 0.005
0.325297 0.708333 0.005
0.325158 0.75 0.005
0.325019 0.791667 0.005
0.32488 0.833333 0.005
0.324741 0.875 0.005
0.324602 0.916667 0.005
0.324463 0.958333 0.005
0.324324 1.0 0.005
0.368617 0.0 0.005
0.368461 0.0416667 0.005
0.368305 0.0833333 0.005
0.368148 0.125 0.005
0.367992 0.166667 0.005
0.367835 0.208333 0.005
0.367679 0.25 0.005
0.367523 0.291667 0.005
0.367366 0.333333 0.005
0.36721 0.375 0.005
0.367054 0.416667 0.005
0.366897 0.458333 0.005
0.366741 0.5 0.005
0.366585 0.541667 0.005
0.366428 0.583333 0.005
0.366272 0.625 0.005
0.366116 0.666667 0.005
0.365959 0.708333 0.005
0.365803 0.75 0.005
0.365647 0.791667 0.005
0.36549 0.833333 0.005
0.365334 0.875 0.005
0.365178 0.916667 0.005
0.365021 0.958333 0.005
0.364865 1.0 0.005
0.409575 0.0 0.005
0.409401 0.0416667 0.005
0.409227 0.0833333 0.005
0.409054 0.125 0.005
0.40888 0.166667 0.005
0.408706 0.208333 0.005
0.408532 0.25 0.005
0.408359 0.291667 0.005
0.408185 0.333333 0.005
0.408011 0.375 0.005
0.407838 0.416667 0.005
0.407664 0.458333 0.005
0.40749 0.5 0.005
0.407316 0.541667 0.005
0.407143 0.583333 0.005
0.406969 0.625 0.005
0.406795 0.666667 0.005
0.406621 0.708333 0.005
0.406448 0.75 0.005
0.406274 0.791667 0.005
0.4061 0.833333 0.005
0.405927 0.875 0.005
0.405753 0.916667 0.005
0.405579 0.958333 0.005
0.405405 1.0 0.005
0.450532 0.0 0.005
0.450341 0.0416667 0.005
0.45015 0.0833333 0.005
0.449959 0.125 0.005
0.449768 0.166667 0.005
0.449577 0.208333 0.005
0.449386 0.25 0.005
0.449195 0.291667 0.005
0.449003 0.333333 0.005
0.448812 0.375 0.005
0.448621 0.416667 0.005
0.44843 0.458333 0.005
0.448239 0.5 0.005
0.448048 0.541667 0.005
0.447857 0.583333 0.005
0.447666 0.625 0.005
0.447475 0.666667 0.005
0.447284 0.708333 0.005
0.447093 0.75 0.005
0.446901 0.791667 0.005
0.44671 0.833333 0.005
0.446519 0.875 0.005
0.446328 0.916667 0.005
0.446137 0.958333 0.005
0.445946 1.0 0.005
0.49149 0.0 0.005
0.491281 0.0416667 0.005
0.491073 0.0833333 0.005
0.490864 0.125 0.005
0.490656 0.166667 0.005
0.490447 0.208333 0.005
0.490239 0.25 0.005
0.49003 0.291667 0.005
0.489822 0.333333 0.005
0.489613 0.375 0.005
0.489405 0.416667 0.005
0.489197 0.458333 0.005
0.488988 0.5 0.005
0.48878 0.541667 0.005
0.488571 0.583333 0.005
0.488363 0.625 0.005
0.488154 0.666667 0.005
0.487946 0.708333 0.005
0.487737 0.75 0.005
0.487529 0.791667 0.005
0.48732 0.833333 0.005
0.487112 0.875 0.005
0.486903 0.916667 0.005
0.486695 0.958333 0.005
0.486486 1.0 0.005
0.531954 0.00563435 0.005
0.531749 0.0470663 0.005
0.531544 0.0884982 0.005
0.531338 0.12993 0.005
0.531133 0.171362 0.005
0.530928 0.212794 0.005
0.530722 0.254226 0.005
0.530517 0.295658 0.005
0.530312 0.33709 0.005
0.530107 0.378521 0.005
0.529901 0.419953 0.005
0.529696 0.461385 0.005
0.529491 0.502817 0.005
0.529285 0.544249 0.005
0.52908 0.585681 0.005
0.528875 0.627113 0.005
0.528669 0.668545 0.005
0.528464 0.709977 0.005
0.528259 0.751409 0.005
0.528054 0.79284 0.005
0.527848 0.834272 0.005
0.527643 0.875704 0.005
0.527438 0.917136 0.005
0.527232 0.958568 0.005
0.527027 1.0 0.005
0.572289 0.0127465 0.005
0.572093 0.0538821 0.005
0.571896 0.0950177 0.005
0.571699 0.136153 0.005
0.571502 0.177289 0.005
0.571306 0.218424 0.005
0.571109 0.25956 0.005
0.570912 0.300695 0.005
0.570715 0.341831 0.005
0.570519 0.382967 0.005
0.570322 0.424102 0.005
0.570125 0.465238 0.005
0.569928 0.506373 0.005
0.569732 0.547509 0.005
0.569535 0.588644 0.005
0.569338 0.62978 0.005
0.569142 0.670916 0.005
0.568945 0.712051 0.005
0.568748 0.753187 0.005
0.568551 0.794322 0.005
0.568355 0.835458 0.005
0.568158 0.876593 0.005
0.567961 0.917729 0.005
0.567764 0.958864 0.005
0.567568 1.0 0.005
0.612625 0.0198587 0.005
0.612436 0.0606979 0.005
0.612248 0.101537 0.005
0.61206 0.142376 0.005
0.611872 0.183216 0.005
0.611684 0.224055 0.005
0.611496 0.264894 0.005
0.611307 0.305733 0.005
0.611119 0.346572 0.005
0.610931 0.387412 0.005
0.610743 0.428251 0.005
0.610555 0.46909 0.005
0.610366 0.509929 0.005
0.610178 0.550769 0.005
0.60999 0.591608 0.005
0.609802 0.632447 0.005
0.609614 0.673286 0.005
0.609425 0.714125 0.005
0.609237 0.754965 0.005
0.609049 0.795804 0.005
0.608861 0.836643 0.005
0.608673 0.877482 0.005
0.608484 0.918322 0.005
0.608296 0.959161 0.005
0.608108 1.0 0.005
0.65296 0.0269708 0.005
0.65278 0.0675137 0.005
0.652601 0.108057 0.005
0.652421 0.148599 0.005
0.652241 0.189142 0.005
0.652062 0.229685 0.005
0.651882 0.270228 0.005
0.651702 0.310771 0.005
0.651523 0.351314 0.005
0.651343 0.391857 0.005
0.651164 0.4324 0.005
0.650984 0.472943 0.005
0.650804 0.513485 0.005
0.650625 0.554028 0.005
0.650445 0.594571 0.005
0.650265 0.635114 0.005
0.650086 0.675657 0.005
0.649906 0.7162 0.005
0.649726 0.756743 0.005
0.649547 0.797286 0.005
0.649367 0.837828 0.005
0.649188 0.878371 0.005
0.649008 0.918914 0.005
0.648828 0.959457 0.005
0.648649 1.0 0.005
0.693295 0.034083 0.005
0.693124 0.0743295 0.005
0.692953 0.114576 0.005
0.692782 0.154823 0.005
0.692611 0.195069 0.005
0.69244 0.235316 0.005
0.692269 0.275562 0.005
0.692098 0.315809 0.005
0.691926 0.356055 0.005
0.691755 0.396302 0.005
0.691584 0.436548 0.005
[...]
CELL_DATA 888
SCALARS P float 1
LOOKUP_TABLE default
100128.38613139467
100128.05020380903
100181.54417066179
100125.75160468629
100181.41643587996
100259.87066956935
100121.80903911302
100178.21733553003
100260.12047840179
100375.51307005319
100116.52481738775
100172.52191432485
100255.45933069962
100376.40780117745
100546.71771972303
100110.20350387171
100164.84237624794
100246.8921503699
100369.31276151411
100548.69010139328
100801.23566466031
100103.14534712584
100155.66707706568
100235.3099664321
100355.99056858319
100537.42930563114
100804.92921939665
101182.14315634874
100095.63307119753
100145.45851162757
100221.53706498137
100338.02180910473
100516.10723391018
100786.27450326951
101188.2363883472
101758.6208701887
100087.91989802736
100134.63911861242
100206.32467615351
100316.83613301588
100487.59161414996
100751.20818752726
101155.79175837302
101766.61576525935
102648.4750311442
100080.22190510598
100123.57814244572
100190.3327486026
100293.6870433585
100454.40632254849
100705.0683205173
101096.4896818878
101706.77411644922
102651.09598302591
104072.53669621801
100072.71501200185
100112.58402000957
100174.11637993505
100269.62659180352
100418.66419794921
100652.35527409408
101020.49787919973
101603.39274809496
102532.59841060547
104031.96352004638
106509.25033024576
100065.53569520643
100101.90290662882
100158.12266795985
100245.49997753426
100382.0486764269
100596.62482159086
100935.84742320512
101476.127803659
102346.26036115702
103777.49253282622
106253.87419687517
111211.43912354096
100058.78441648248
100091.72208168152
100142.69540530117
100221.95410604234
100345.8346386609
100540.53120108061
100848.4222411019
101339.08831720178
102129.85938125718
103429.7888724268
105660.85998915731
109950.99147839396
122254.22506395885
100052.53047038666
100082.17640297767
100128.0859104856
100199.46163267776
100310.9428079699
100485.95091801655
100762.26623421411
101201.60379108062
101906.96924763876
103057.44845473526
104992.35972891569
108482.94446289375
116012.21737021343
132472.73817045864
100046.81749086543
100073.3563632496
100114.46687738805
100178.34789739431
100277.99857719892
100434.1345722326
100679.99558417026
101069.44221878516
101691.13692864044
102695.1234077263
104349.36899817667
107186.21193559276
112463.114596986
122779.04237484532
140453.17208428474
100041.66903822488
100065.31648818652
100101.94684565018
100158.81929129003
100247.39621697897
100385.85573344362
100603.17817876239
100945.89750855695
101489.52878526003
102358.73449820688
103765.71356574891
106092.2934486221
110080.22193732727
117192.79883571471
129236.38554147615
146898.32761504466
100037.09379482809
100058.08370363347
100090.5841687497
100140.99032647029
100219.35474190218
100341.53480353103
100532.64081315059
100832.62288850761
101305.44448830183
102054.47147730691
103249.23109037075
105174.31305766954
108318.72861476392
113584.90549612946
122193.81858107694
135096.5657582273
152183.432065335
100033.09029842578
100051.66469435391
100080.39985658793
100124.90631261973
100193.962994328
100301.34292922611
100468.70932685543
100730.22414842134
101139.92234256485
101783.58292417727
102797.94846800329
104401.87155561033
106943.6366333462
111030.47596366514
117494.17192608613
127140.32690766662
140310.33538134568
156537.73135894115
100029.65122369633
100046.05262095394
100071.38856625628
100110.56406008128
100171.21997221018
100265.27957596055
100411.37621694047
100638.6520160097
100992.71184698427
101544.87616597122
102406.41780332716
103749.64075152333
105835.94950758843
109103.36638695378
114145.1097149767
121589.32497962088
131856.84060487355
144900.7546139708
160119.4771612878
100026.7671562064
100041.23305892869
100063.52799021476
100097.92752876366
100151.06354010403
100233.2329882674
100360.4282935591
100557.47680078684
100862.8629868095
101336.03643685696
102068.21823216451
103197.44305055928
104926.95820869927
107588.8211313315
111627.43312402887
117534.30875393879
125703.82801413786
136253.03337091874
148910.6691864144
163047.9531670441
100024.43031246905
100037.18930469122
100056.78742693248
100086.94207617646
100133.39601739026
100205.02397354716
100315.53239895549
100486.05795705412
100749.09032944535
101154.31174997184
101776.96666046145
102729.07840391589
104172.47831020976
106367.58071955088
109660.70905780974
114446.179459668
121074.82355103419
129720.74054360103
140287.22552968533
152387.5421472519
165417.98411254978
100022.63869781852
100033.90768405754
100051.13493386426
100077.54491062455
100118.10064163868
100180.43919172703
100276.29587281978
100423.65803383173
100649.97933982642
100996.87694555902
101526.74464481547
102331.38078890412
103541.80896196714
105366.81139745243
108083.98539150246
112017.4074516134
117477.79714926543
124661.39593997148
133561.43287153202
143944.73203485517
155378.33414300706
167308.2952417167
100021.401605315
100031.38388812382
100046.54496641745
100069.67607458393
100105.05862121284
100159.2556189126
100242.30746006082
100369.52066710484
100564.11250719204
100861.02757553183
101312.23141841669
101993.5115198524
103012.20864285144
104538.20685280867
106798.22215781528
110063.07837074506
114608.99331378296
120640.7835025128
128209.85078873235
137175.49068069417
147226.58545317932
157928.1736386634
168786.32237480802
100020.7488296413
100029.63199458667
100043.00782369492
100063.28841338745
100094.161195878
100141.2595120274
100213.1674480995
100322.9117252397
100490.1463105386
100744.27506513316
101128.73821671878
101706.47680553648
102566.19196270875
103847.56046750757
105737.87794720795
108465.89776895725
112277.27932168577
117377.67124580909
123860.4134669269
131655.43695477233
140532.19673223628
150143.92420064437
160080.14519041957
169911.12020911113
100028.70006888775
100040.54345169284
100058.3613605951
100085.32468900608
100126.262822802
100188.51027940381
100283.15474251598
100426.84870348303
100644.38039943115
100972.17957255292
101462.77687424663
102189.95469702613
103269.34917956384
104856.93870906717
107146.98175120719
110357.34351549984
114688.72597334332
120264.0010616812
127072.18301954132
134950.1592013753
143614.5915969057
152713.10331989537
161874.82219114073
170732.1084355807
100039.22550072789
100054.92092425027
100078.50823617142
100114.12186536557
100168.02413937521
100249.65133535357
100373.12376803231
100559.37527272881
100839.0410984054
101256.1333735464
101872.35356837406
102783.93241741054
104121.44220112464
106050.27975566118
108762.81119195986
112450.06702695401
117253.61576622541
123210.99356331986
130222.17259094868
138059.56928478123
146416.15022860497
154954.512435441
163349.8476087131
171295.4263384084
100053.07473736197
100073.74287382267
100104.76157703804
100151.47114431046
100221.9004441447
100328.02942866541
100487.56149206308
100726.32004275802
101081.30454240637
101604.32711113452
102375.79801740216
103505.3975524391
105134.1324910853
107431.00203063957
110574.11060976182
114714.14876116374
119925.86128596182
126166.83901385618
133267.1894950071
140960.5357862246
148937.86531949777
156890.24892149225
164541.47258276524
171637.10077948074
100071.18016556605
100098.21460659217
100138.72107568235
100199.52467512232
100290.79100916711
100427.5076805273
100631.48484513353
100933.91242896099
101378.45238165458
102032.50529993503
102988.44287471242
104366.54980283376
106314.5594664915
108995.70597657742
112562.19548662494
117114.6769748439
122659.83098675105
129085.89468004632
136173.43353551388
143638.95658503234
151186.46216892306
158543.97213863966
165480.31385247232
171793.45496944126
100094.68877895798
100129.80226443523
100182.30834254077
100260.82743494917
100378.05492278289
100552.4387842177
100810.33271687312
101188.63726401616
101743.9839125955
102554.34123791174
103722.33375282485
105376.52757981067
107664.57147169486
110734.4328757458
114702.52242895939
119614.3309478429
125412.37119094528
131929.55928872543
138915.8534406011
146087.95786388428
153172.76094133614
159938.9718131146
166198.8749593435
171792.80468794014
100124.99443721001
100170.26703161531
100237.79926442717
100338.34041176378
100487.50738620575
100707.60495583844
101029.89134314113
101502.06155043557
102190.01724948589
103181.31504295632
104587.48570392303
106540.58470514146
109180.59052393904
112631.30762954628
116966.37419892562
122175.22476159556
128144.25808620291
134666.03192215465
141476.80918045994
148305.58146420485
154910.08274711887
161098.3733563878
166723.27964905606
171666.03768622497
100163.77095531383
100221.69622900004
100307.8499889928
100435.44870421864
100623.38979653212
100898.19188916832
101300.09469224357
101884.87380501305
102727.22476816029
103923.63415178416
105591.20557312018
107859.6680819853
110853.77483916523
114665.67279757073
119322.48820661452
124760.6605455767
130820.8264826692
137270.0992430608
143845.0415471339
150295.61140574922
156413.83703795608
162045.75686394502
167081.50825622844
171433.57961133373
100213.00280950144
100286.53185329647
100395.51459950313
100555.9554112491
100790.37455673196
101132.75049818885
101630.33811956554
102346.86133828825
103365.60197198544
104789.69413177014
106737.492003353
109330.23267376833
112670.39038261789
116813.18342800564
121738.57472237521
127336.13725667929
133412.451778268
139723.03898664724
146014.75710663173
152064.4093356175
157700.396920013
162804.20998991764
167297.63309088195
171125.45837660038
100275.01525139721
100367.59523491109
100504.25760609398
100704.11064556659
100995.86131639169
101419.55334954178
102029.53265129229
102897.54125200606
104113.94417169793
105785.42031782212
108026.68835563671
110944.28045831944
114612.61904771162
119047.01925100916
124182.66444830081
129870.50803366197
135894.75825617695
142010.45342548445
147984.09399030538
153622.34445490947
158788.0507515355
163396.15036683754
167396.9515275508
170761.48597446983
100352.50143792297
100468.10996066767
100637.99482936496
100886.38197215331
101247.16749831903
101766.66979075932
102506.57500578607
103545.71908351708
104979.34242813734
106913.90471325465
109455.32120481397
112689.7516169731
116659.34052627662
121339.0803449232
126624.16902542475
132335.79859836295
138248.29055366517
144124.71153392267
149755.717892048
154980.6241435824
159694.93477136517
163843.3910155805
167403.48311551294
170371.1012991995
100448.55306123363
100591.75499487016
100802.46577062357
101109.27958470321
101551.5877423848
102182.32574731088
103069.9927889004
104299.00288378343
105966.69355540324
108175.08034337325
111016.10512523014
114550.91044483318
118787.08270052636
123661.02624488095
129034.66835414784
134709.21014645314
140457.5784879807
146060.12600735156
151334.5219437652
156152.01529684968
160439.9263130922
164169.51558053325
167343.84691953714
169986.10811055973
100566.71827479824
100743.74216221354
101003.53226000235
101379.42211993311
101916.68996720418
102674.63203106163
103727.57766936788
105163.45545785895
107078.36616432319
109565.47823783568
112698.17298807473
116509.10162972433
120970.82327678558
125985.22477568769
131387.88756300652
136970.5682743996
142512.6281682214
147815.83262532257
152727.96913512703
157151.30851712028
161041.99915935838
164397.66295494675
167246.60710610513
169656.08853119952
100711.91856085227
100929.46680411787
101247.25427656146
101703.76784999888
102350.08515108826
103251.26224677649
104485.9745181372
106143.13050024238
108313.89925998797
111078.36519624163
114487.3451285829
118543.30238720313
123185.10648735419
128285.07129473494
133661.35323168332
139103.49535640414
144405.1449847845
149393.3343976359
153945.1050158067
157993.2886658145
161521.22692659675
164552.17348027654
167147.37057925537
169439.07531367967
100889.2774699562
101154.5691804553
101540.0689421257
102089.43343138375
102859.19658077124
103919.12360383845
105350.32701384055
107239.74539378444
109669.84283095946
112703.65251700656
116366.71043163592
120630.53071463734
125404.02333468161
130536.11006104312
135834.89098074508
141095.701596109
146131.31144712763
150795.8373411612
154995.72718552558
158692.74209015808
161896.10439934584
164656.0170242938
167080.66773030447
101104.19976556717
101425.07606955775
101888.6328387457
102543.48606439773
103450.92573467603
104684.00884893443
106323.94962076042
108452.45266087166
111139.67518301455
114428.29869755822
118316.970748564
122747.72955367902
127602.93559767
132715.6457311717
137891.3452305282
142937.12362637458
147688.31502439143
152026.86183050965
155888.81803251675
159262.062817633
162179.2263952452
164721.70019075656
101362.4732909946
101747.28475722822
102299.65584384876
103072.69480015538
104131.36285562185
105550.22987505258
107407.91189942228
109777.65765881806
112713.91253415942
116236.61013278084
120317.12063357585
124870.34478309486
129757.6723265104
134803.12224630435
139815.6305261461
144619.3558970831
149074.26627433617
153090.57868130156
156630.0439728323
159703.57317775715
162361.46744277462
101670.1685242185
102127.59284765252
102779.68338222888
103683.228967363
104905.47776950285
106520.29759267655
108600.89881383083
111208.83443198373
114379.88814173732
118110.10402022669
122344.26553532443
126973.7982500972
131845.20022438487
136778.9732897801
141593.98289239404
146134.60776199444
150286.0057289381
153984.35953695554
157212.4758736181
159988.54410915007
102033.4999320631
102572.31984785979
103334.83750577677
104380.3802464613
105776.74936808106
107594.65816775186
109898.96865552386
112736.6710452061
116122.77055376922
120028.66317176861
124375.13309804803
129034.19085943578
133843.11301617662
138624.7180652967
143212.851290283
147472.61849079528
151314.24219695647
154691.28460693674
157588.14295245172
102458.62736471806
103087.48341122837
103970.54445548735
105168.2660660449
106746.86337701487
108771.35549323678
111295.38063638005
114348.63571846212
117924.5964585149
121970.38072650346
126385.01900232701
131026.89347861845
135728.91589507632
140321.71459878574
144655.72989697207
148616.8489665723
152131.1356497867
155147.15343519722
102951.47051709329
103678.52970686542
104691.26600101241
106049.44225971021
107815.45200956015
110045.87317408116
112780.37038776252
116029.73968347887
119764.84306190979
123910.44813512321
128348.26451906185
132926.26242231773
137478.7351349447
141847.146024232
145898.18473562447
149530.06995416022
152657.46222332976
103517.45927355908
104350.06185170599
105500.116884852
107024.61876054823
108979.57993429007
111410.64264964162
114341.24662584977
117761.71061699522
121620.76720029052
125823.60578516751
130236.94207914904
134704.29712430283
139064.2413341041
143168.8615251606
146892.64574533812
150116.93466189466
104161.24124222464
105105.54475903042
106398.60080031032
108092.37478548521
110233.98805594661
112855.34663939867
115962.00779621975
119523.16882239556
123466.60379163462
127679.8884828201
132019.4909705618
136327.40054049465
140446.3124380861
144230.3669839863
147531.15033342238
104886.40676695392
105946.93958767239
107386.27229580506
109248.72518914143
111569.98075235673
114366.01934643557
117623.17898528383
121289.17545159113
125272.6312281741
129446.28701310804
133659.17979414208
137750.38400349146
141559.75208433619
144911.23158575865
105695.16579426099
106874.3924665864
108460.12346951028
110486.59299844407
112975.495543818
115925.00465431495
119300.86323113451
123030.34068467823
127004.20331101985
131081.90707260655
135104.55494784217
138901.0764159822
142273.52294148618
106587.93073312263
107885.77615479092
109614.67325996727
111795.97131233268
114434.80782454125
117510.15355812447
120966.48566234681
124711.331578432
128617.70823773704
132531.86503040488
136276.84131608877
139638.2676225329
107563.03921922603
108976.29434214091
110840.81859013799
113162.2815515986
115927.36513178737
119093.96418326246
122584.95670076614
126287.48100561091
130055.4030031371
133711.41152747473
137028.29438583943
108616.14917821437
110138.00136657163
112125.73914881142
114566.78798490687
117427.02825608749
120641.77915280184
124111.01188974768
127698.70791104989
131229.29593898664
134468.09084213342
109739.85057695677
111359.03878664313
113451.85057319992
115984.64020587747
118900.11599488139
122108.52481784488
125483.38517283645
128854.08259485774
131982.10569975883
110922.84986402998
112622.84626362039
114795.66161050259
117383.27431434949
120302.00676351087
123432.8321769388
126610.22746492713
129595.63920369674
112149.1484269289
113906.94955589919
116125.67456995217
118719.47393115991
121572.07334031718
124522.85081956058
127333.87152522923
113396.97063055896
115181.12288363675
117400.22114464808
119933.47755339376
122620.02939006744
125223.21126518898
114636.79133802206
116404.43826961501
118560.60408851094
120936.47637019905
123293.39589320142
115828.433730977
117519.98323702348
119520.64122723542
121581.36216196456
116915.93988730462
118443.68377755962
120137.53823140032
117816.56740793654
119036.88735072252
118394.86248459417
SCALARS T float 1
LOOKUP_TABLE default
300.11081363801253
300.11050582743286
300.1571269602891
300.1084988143054
300.15697597909104
300.22575321858045
300.10506847592956
300.15415785710275
300.2258783947907
300.327816432522
300.1004778170122
300.1491714205416
300.221721659239
300.3283897836235
300.4803352020521
300.0949922078205
300.1424640867197
300.2141582743886
300.32196082915203
300.48159967472606
300.70974046892
300.0888731126977
300.13446357507473
300.20397106479714
300.31007406528636
300.471193500953
300.711957285967
301.05795514186246
300.0823663309839
300.1255747808671
300.1918866356558
300.2941286716668
300.45191902370215
300.6943206337485
301.06103536116024
301.5935191843904
300.0756915134407
300.11616672237454
300.1785667879156
300.27539464707877
300.4263383904674
300.66213027570643
301.02960920571024
301.5954611447389
302.433794313057
300.069035580334
300.1065609117758
300.16459114278865
300.25498413721266
300.3967135223292
300.62020593374785
300.97422978651497
301.5362040487061
302.4246157507896
303.79446978666397
300.0625502305497
300.09702485429506
300.15044500193426
300.23382652374545
300.36493344296304
300.5726193278852
300.9041785110937
301.43796531187957
302.3055871007515
303.73299292781076
306.11620421710285
300.05635271086095
300.08777104743393
300.1365170052751
300.21266361615517
300.3324939301903
300.5225741810322
300.8267891537269
301.31886459833936
302.1258610957384
303.47751807155254
305.8378220397216
310.4367433909208
300.05052893012856
300.07896026938056
300.1231039239951
300.1920584289369
300.3005172472023
300.47244059322617
300.74739922984713
301.1918855931499
301.9204873697375
303.13945830036903
305.25553758563365
309.26416127297176
319.595129643392
300.0451377763668
300.070707490144
300.110420846354
300.17241798100366
300.2698038360496
300.4238715319233
300.66962928370424
301.0655276089803
301.71125622910347
302.78251632343984
304.6084837077737
307.8908553657743
314.5952153896079
327.5535153801827
300.04021597190234
300.06308910966806
300.09861389193173
300.15401852461457
300.2408881997393
300.3779472969536
300.5957732118405
300.9449418297839
301.51050283629314
302.43875261667904
303.9905815148091
306.66273442630984
311.5060789132933
320.2892003763001
333.52321783657715
300.0357829655378
300.05615042043985
300.08777330035053
300.1370316797091
300.2140988947908
300.3353164966132
300.5271603678972
300.8329671596799
301.3245358246127
302.1225453372823
303.43360209511155
305.6204259147898
309.33251049443305
315.67454013005465
325.50731912080647
338.21548166997593
300.0318454580052
300.04991297476465
300.0779459172424
300.1215490264967
300.18961019508157
300.2963125797248
300.4644479415685
300.73092854533365
301.15603792268433
301.8390424974521
302.9445025082465
304.7456125417415
307.686353925774
312.50373078181144
319.9417710992036
330.0812954453855
341.9851108254803
300.0284015059074
300.0443810214848
300.06914655795845
300.1076024887097
300.16748332733675
300.261050273838
300.40784741917497
300.6392033985235
301.0056085094634
301.58874280812626
302.5206355891132
304.0122842894064
306.3879148959139
310.17371816570494
315.95824800131265
324.0283039134252
334.03174856548736
345.0402652175693
300.02544421890747
300.03954734408154
300.06136764841943
300.09518270310724