# vtk DataFile Version 2.0
JuliaCFD
ASCII
DATASET UNSTRUCTURED_GRID

POINTS 1900 float
0.0 0.0 0.005
0.0 0.0416667 0.005
0.0 0.0833333 0.005
0.0 0.125 0.005
0.0 0.166667 0.005
0.0 0.208333 0.005
0.0 0.25 0.005
0.0 0.291667 0.005
0.0 0.333333 0.005
0.0 0.375 0.005
0.0 0.416667 0.005
0.0 0.458333 0.005
0.0 0.5 0.005
0.0 0.541667 0.005
0.0 0.583333 0.005
0.0 0.625 0.005
0.0 0.666667 0.005
0.0 0.708333 0.005
0.0 0.75 0.005
0.0 0.791667 0.005
0.0 0.833333 0.005
0.0 0.875 0.005
0.0 0.916667 0.005
0.0 0.958333 0.005
0.0 1.0 0.005
0.0409575 0.0 0.005
0.0409401 0.0416667 0.005
0.0409227 0.0833333 0.005
0.0409054 0.125 0.005
0.040888 0.166667 0.005
0.0408706 0.208333 0.005
0.0408532 0.25 0.005
0.0408359 0.291667 0.005
0.0408185 0.333333 0.005
0.0408011 0.375 0.005
0.0407838 0.416667 0.005
0.0407664 0.458333 0.005
0.040749 0.5 0.005
0.0407316 0.541667 0.005
0.0407143 0.583333 0.005
0.0406969 0.625 0.005
0.0406795 0.666667 0.005
0.0406621 0.708333 0.005
0.0406448 0.75 0.005
0.0406274 0.791667 0.005
0.04061 0.833333 0.005
0.0405927 0.875 0.005
0.0405753 0.916667 0.005
0.0405579 0.958333 0.005
0.0405405 1.0 0.005
0.0819149 0.0 0.005
0.0818802 0.0416667 0.005
0.0818455 0.0833333 0.005
0.0818107 0.125 0.005
0.081776 0.166667 0.005
0.0817412 0.208333 0.005
0.0817065 0.25 0.005
0.0816717 0.291667 0.005
0.081637 0.333333 0.005
0.0816022 0.375 0.005
0.0815675 0.416667 0.005
0.0815328 0.458333 0.005
0.081498 0.5 0.005
0.0814633 0.541667 0.005
0.0814285 0.583333 0.005
0.0813938 0.625 0.005
0.081359 0.666667 0.005
0.0813243 0.708333 0.005
0.0812895 0.75 0.005
0.0812548 0.791667 0.005
0.0812201 0.833333 0.005
0.0811853 0.875 0.005
0.0811506 0.916667 0.005
0.0811158 0.958333 0.005
0.0810811 1.0 0.005
0.122872 0.0 0.005
0.12282 0.0416667 0.005
0.122768 0.0833333 0.005
0.122716 0.125 0.005
0.122664 0.166667 0.005
0.122612 0.208333 0.005
0.12256 0.25 0.005
0.122508 0.291667 0.005
0.122455 0.333333 0.005
0.122403 0.375 0.005
0.122351 0.416667 0.005
0.122299 0.458333 0.005
0.122247 0.5 0.005
0.122195 0.541667 0.005
0.122143 0.583333 0.005
0.122091 0.625 0.005
0.122039 0.666667 0.005
0.121986 0.708333 0.005
0.121934 0.75 0.005
0.121882 0.791667 0.005
0.12183 0.833333 0.005
0.121778 0.875 0.005
0.121726 0.916667 0.005
0.121674 0.958333 0.005
0.121622 1.0 0.005
0.16383 0.0 0.005
0.16376 0.0416667 0.005
0.163691 0.0833333 0.005
0.163621 0.125 0.005
0.163552 0.166667 0.005
0.163482 0.208333 0.005
0.163413 0.25 0.005
0.163343 0.291667 0.005
0.163274 0.333333 0.005
0.163204 0.375 0.005
0.163135 0.416667 0.005
0.163066 0.458333 0.005
0.162996 0.5 0.005
0.162927 0.541667 0.005
0.162857 0.583333 0.005
0.162788 0.625 0.005
0.162718 0.666667 0.005
0.162649 0.708333 0.005
0.162579 0.75 0.005
0.16251 0.791667 0.005
0.16244 0.833333 0.005
0.162371 0.875 0.005
0.162301 0.916667 0.005
0.162232 0.958333 0.005
0.162162 1.0 0.005
0.204787 0.0 0.005
0.2047 0.0416667 0.005
0.204614 0.0833333 0.005
0.204527 0.125 0.005
0.20444 0.166667 0.005
0.204353 0.208333 0.005
0.204266 0.25 0.005
0.204179 0.291667 0.005
0.204092 0.333333 0.005
0.204006 0.375 0.005
0.203919 0.416667 0.005
0.203832 0.458333 0.005
0.203745 0.5 0.005
0.203658 0.541667 0.005
0.203571 0.583333 0.005
0.203484 0.625 0.005
0.203398 0.666667 0.005
0.203311 0.708333 0.005
0.203224 0.75 0.005
0.203137 0.791667 0.005
0.20305 0.833333 0.005
0.202963 0.875 0.005
0.202876 0.916667 0.005
0.20279 0.958333 0.005
0.202703 1.0 0.005
0.245745 0.0 0.005
0.245641 0.0416667 0.005
0.245536 0.0833333 0.005
0.245432 0.125 0.005
0.245328 0.166667 0.005
0.245224 0.208333 0.005
0.245119 0.25 0.005
0.245015 0.291667 0.005
0.244911 0.333333 0.005
0.244807 0.375 0.005
0.244703 0.416667 0.005
0.244598 0.458333 0.005
0.244494 0.5 0.005
0.24439 0.541667 0.005
0.244286 0.583333 0.005
0.244181 0.625 0.005
0.244077 0.666667 0.005
0.243973 0.708333 0.005
0.243869 0.75 0.005
0.243764 0.791667 0.005
0.24366 0.833333 0.005
0.243556 0.875 0.005
0.243452 0.916667 0.005
0.243347 0.958333 0.005
0.243243 1.0 0.005
0.286702 0.0 0.005
0.286581 0.0416667 0.005
0.286459 0.0833333 0.005
0.286337 0.125 0.005
0.286216 0.166667 0.005
0.286094 0.208333 0.005
0.285973 0.25 0.005
0.285851 0.291667 0.005
0.285729 0.333333 0.005
0.285608 0.375 0.005
0.285486 0.416667 0.005
0.285365 0.458333 0.005
0.285243 0.5 0.005
0.285121 0.541667 0.005
0.285 0.583333 0.005
0.284878 0.625 0.005
0.284757 0.666667 0.005
0.284635 0.708333 0.005
0.284513 0.75 0.005
0.284392 0.791667 0.005
0.28427 0.833333 0.005
0.284149 0.875 0.005
0.284027 0.916667 0.005
0.283905 0.958333 0.005
0.283784 1.0 0.005
0.32766 0.0 0.005
0.327521 0.0416667 0.005
0.327382 0.0833333 0.005
0.327243 0.125 0.005
0.327104 0.166667 0.005
0.326965 0.208333 0.005
0.326826 0.25 0.005
0.326687 0.291667 0.005
0.326548 0.333333 0.005
0.326409 0.375 0.005
0.32627 0.416667 0.005
0.326131 0.458333 0.005
0.325992 0.5 0.005
0.325853 0.541667 0.005
0.325714 0.583333 0.005
0.325575 0.625 0.005
0.325436 0.666667 0.005
0.325297 0.708333 0.005
0.325158 0.75 0.005
0.325019 0.791667 0.005
0.32488 0.833333 0.005
0.324741 0.875 0.005
0.324602 0.916667 0.005
0.324463 0.958333 0.005
0.324324 1.0 0.005
0.368617 0.0 0.005
0.368461 0.0416667 0.005
0.368305 0.0833333 0.005
0.368148 0.125 0.005
0.367992 0.166667 0.005
0.367835 0.208333 0.005
0.367679 0.25 0.005
0.367523 0.291667 0.005
0.367366 0.333333 0.005
0.36721 0.375 0.005
0.367054 0.416667 0.005
0.366897 0.458333 0.005
0.366741 0.5 0.005
0.366585 0.541667 0.005
0.366428 0.583333 0.005
0.366272 0.625 0.005
0.366116 0.666667 0.005
0.365959 0.708333 0.005
0.365803 0.75 0.005
0.365647 0.791667 0.005
0.36549 0.833333 0.005
0.365334 0.875 0.005
0.365178 0.916667 0.005
0.365021 0.958333 0.005
0.364865 1.0 0.005
0.409575 0.0 0.005
0.409401 0.0416667 0.005
0.409227 0.0833333 0.005
0.409054 0.125 0.005
0.40888 0.166667 0.005
0.408706 0.208333 0.005
0.408532 0.25 0.005
0.408359 0.291667 0.005
0.408185 0.333333 0.005
0.408011 0.375 0.005
0.407838 0.416667 0.005
0.407664 0.458333 0.005
0.40749 0.5 0.005
0.407316 0.541667 0.005
0.407143 0.583333 0.005
0.406969 0.625 0.005
0.406795 0.666667 0.005
0.406621 0.708333 0.005
0.406448 0.75 0.005
0.406274 0.791667 0.005
0.4061 0.833333 0.005
0.405927 0.875 0.005
0.405753 0.916667 0.005
0.405579 0.958333 0.005
0.405405 1.0 0.005
0.450532 0.0 0.005
0.450341 0.0416667 0.005
0.45015 0.0833333 0.005
0.449959 0.125 0.005
0.449768 0.166667 0.005
0.449577 0.208333 0.005
0.449386 0.25 0.005
0.449195 0.291667 0.005
0.449003 0.333333 0.005
0.448812 0.375 0.005
0.448621 0.416667 0.005
0.44843 0.458333 0.005
0.448239 0.5 0.005
0.448048 0.541667 0.005
0.447857 0.583333 0.005
0.447666 0.625 0.005
0.447475 0.666667 0.005
0.447284 0.708333 0.005
0.447093 0.75 0.005
0.446901 0.791667 0.005
0.44671 0.833333 0.005
0.446519 0.875 0.005
0.446328 0.916667 0.005
0.446137 0.958333 0.005
0.445946 1.0 0.005
0.49149 0.0 0.005
0.491281 0.0416667 0.005
0.491073 0.0833333 0.005
0.490864 0.125 0.005
0.490656 0.166667 0.005
0.490447 0.208333 0.005
0.490239 0.25 0.005
0.49003 0.291667 0.005
0.489822 0.333333 0.005
0.489613 0.375 0.005
0.489405 0.416667 0.005
0.489197 0.458333 0.005
0.488988 0.5 0.005
0.48878 0.541667 0.005
0.488571 0.583333 0.005
0.488363 0.625 0.005
0.488154 0.666667 0.005
0.487946 0.708333 0.005
0.487737 0.75 0.005
0.487529 0.791667 0.005
0.48732 0.833333 0.005
0.487112 0.875 0.005
0.486903 0.916667 0.005
0.486695 0.958333 0.005
0.486486 1.0 0.005
0.531954 0.00563435 0.005
0.531749 0.0470663 0.005
0.531544 0.0884982 0.005
0.531338 0.12993 0.005
0.531133 0.171362 0.005
0.530928 0.212794 0.005
0.530722 0.254226 0.005
0.530517 0.295658 0.005
0.530312 0.33709 0.005
0.530107 0.378521 0.005
0.529901 0.419953 0.005
0.529696 0.461385 0.005
0.529491 0.502817 0.005
0.529285 0.544249 0.005
0.52908 0.585681 0.005
0.528875 0.627113 0.005
0.528669 0.668545 0.005
0.528464 0.709977 0.005
0.528259 0.751409 0.005
0.528054 0.79284 0.005
0.527848 0.834272 0.005
0.527643 0.875704 0.005
0.527438 0.917136 0.005
0.527232 0.958568 0.005
0.527027 1.0 0.005
0.572289 0.0127465 0.005
0.572093 0.0538821 0.005
0.571896 0.0950177 0.005
0.571699 0.136153 0.005
0.571502 0.177289 0.005
0.571306 0.218424 0.005
0.571109 0.25956 0.005
0.570912 0.300695 0.005
0.570715 0.341831 0.005
0.570519 0.382967 0.005
0.570322 0.424102 0.005
0.570125 0.465238 0.005
0.569928 0.506373 0.005
0.569732 0.547509 0.005
0.569535 0.588644 0.005
0.569338 0.62978 0.005
0.569142 0.670916 0.005
0.568945 0.712051 0.005
0.568748 0.753187 0.005
0.568551 0.794322 0.005
0.568355 0.835458 0.005
0.568158 0.876593 0.005
0.567961 0.917729 0.005
0.567764 0.958864 0.005
0.567568 1.0 0.005
0.612625 0.0198587 0.005
0.612436 0.0606979 0.005
0.612248 0.101537 0.005
0.61206 0.142376 0.005
0.611872 0.183216 0.005
0.611684 0.224055 0.005
0.611496 0.264894 0.005
0.611307 0.305733 0.005
0.611119 0.346572 0.005
0.610931 0.387412 0.005
0.610743 0.428251 0.005
0.610555 0.46909 0.005
0.610366 0.509929 0.005
0.610178 0.550769 0.005
0.60999 0.591608 0.005
0.609802 0.632447 0.005
0.609614 0.673286 0.005
0.609425 0.714125 0.005
0.609237 0.754965 0.005
0.609049 0.795804 0.005
0.608861 0.836643 0.005
0.608673 0.877482 0.005
0.608484 0.918322 0.005
0.608296 0.959161 0.005
0.608108 1.0 0.005
0.65296 0.0269708 0.005
0.65278 0.0675137 0.005
0.652601 0.108057 0.005
0.652421 0.148599 0.005
0.652241 0.189142 0.005
0.652062 0.229685 0.005
0.651882 0.270228 0.005
0.651702 0.310771 0.005
0.651523 0.351314 0.005
0.651343 0.391857 0.005
0.651164 0.4324 0.005
0.650984 0.472943 0.005
0.650804 0.513485 0.005
0.650625 0.554028 0.005
0.650445 0.594571 0.005
0.650265 0.635114 0.005
0.650086 0.675657 0.005
0.649906 0.7162 0.005
0.649726 0.756743 0.005
0.649547 0.797286 0.005
0.649367 0.837828 0.005
0.649188 0.878371 0.005
0.649008 0.918914 0.005
0.648828 0.959457 0.005
0.648649 1.0 0.005
0.693295 0.034083 0.005
0.693124 0.0743295 0.005
0.692953 0.114576 0.005
0.692782 0.154823 0.005
0.692611 0.195069 0.005
0.69244 0.235316 0.005
0.692269 0.275562 0.005
0.692098 0.315809 0.005
0.691926 0.356055 0.005
0.691755 0.396302 0.005
0.691584 0.436548 0.005
[...]
CELL_DATA 888
SCALARS P float 1
LOOKUP_TABLE default
100145.81712251839
100145.46918830505
100205.4149542084
100143.07163127285
100205.28752062393
100292.09965445992
100138.95487901161
100201.9587021559
100292.37200761985
100418.56690414046
100133.43067341183
100196.02449754672
100287.54148168147
100419.52039232811
100603.76619273883
100126.8124832666
100188.01289170608
100278.6470226728
100412.20299331279
100605.8544015894
100876.34872420276
100119.40949752598
100178.4261151536
100266.60516154967
100398.43029825515
100594.29818270546
100880.24735776756
101280.53977092523
100111.51348417644
100167.73991281298
100252.26193178256
100379.823223596
100572.3510039958
100861.19326298087
101286.9772257049
101886.97999585274
100103.38668439107
100156.38971009228
100236.38858285105
100357.84545241894
100542.944065583
100825.24980552644
101253.97942170131
101895.53385142502
102815.32554826532
100095.25399510049
100144.75745595334
100219.66406452813
100333.78100684185
100508.65463625618
100777.85598406183
101193.42910653769
101834.8994198485
102818.82217708994
104288.76972878394
100087.29980190407
100133.16384992532
100202.66156207262
100308.70998393017
100471.64226071407
100723.59640052139
101115.65756436196
101729.71144555027
102699.1313876249
104249.47069733459
106788.93909928369
100079.66857654508
100121.86670617598
100185.84528146914
100283.50355523113
100433.63200612168
100666.09850199077
101028.82960942159
101599.89696218746
102510.12793562608
103993.07682127805
106535.01961567202
111573.82941275388
100072.46823533998
100111.06424305117
100169.5750173916
100258.8324873374
100395.93592737657
100608.07809737287
100938.93892993547
101459.77777446136
102290.04438959532
103641.36188438501
105938.62919971305
110313.13432252141
122731.28730914168
100065.77495222811
100100.90146128357
100154.1168967771
100235.19128985185
100359.50802190171
100551.46476944035
100850.11964536211
101318.84911820709
102062.7880861992
103263.67604595868
105263.98962935434
108838.61126824433
116476.49554659697
133077.84639960006
100059.63866070622
100091.47817406883
100139.65720129927
100212.92517125096
100325.00327230881
100497.55490997886
100765.0625849132
101183.00876464024
101842.14950564262
102895.17219695983
104613.25410792619
107532.4192757874
112914.4336272649
123362.82311084754
141194.4915869216
100054.088660376
100082.85740482273
100126.31684130964
100192.25845626579
100292.84226713
100447.16176226422
100685.39781702928
101055.65327629697
101635.47522013185
102552.10960772513
104020.92804122611
106427.42647812383
110517.26856440301
117757.64454773924
129954.42414159476
147785.95530514102
100049.13884861948
100075.07379715826
100114.16536724468
100173.32179931767
100263.26740076978
100400.7400853263
100612.00420863171
100938.51804451886
101446.20089683788
102240.9148222876
103495.2768907041
105497.49173983908
108740.42446544887
114130.51899587235
122889.43974079755
135963.01461199173
153228.4886075997
100044.79250538487
100068.14102028903
100103.2338903634
100156.17494784133
100236.388151709
100358.49088156759
100545.25165069014
100832.2756415932
101275.46985329964
101963.00793307227
103034.61419626774
104712.67427708702
107349.324293044
111556.11796069045
118166.6305876192
127983.49724573545
141339.34717690558
157751.94094216896
100041.04664465065
100062.05856552508
100093.52616418689
100140.82764532452
100212.2218182376
100320.4395756336
100485.16991278622
100736.93150382121
101123.11419330866
101717.32422947508
102633.69441405713
104047.9568727552
106225.35062607417
109608.48845257061
114793.35458889694
122406.99670706307
132864.12282453864
146106.517469492
161514.9699099459
100037.89587400106
100056.817783107
100085.02807775546
100127.25539376924
100190.72241336509
100286.49705874274
100431.57766007059
100652.10145047666
100988.24988349168
101501.64712098613
102286.24512464358
103483.38443037104
105300.09756090865
108073.20315450033
112250.65023970141
118324.4636478492
126685.10938548973
137440.90882135878
150307.42480224255
164637.11990634605
100035.33624581977
100052.40732020758
100077.71640459253
100115.4139544569
100171.80666263826
100256.50392898414
100384.1691064458
100577.18301615011
100869.64519275524
101313.30149382031
101985.99499610192
103002.92129526893
104529.6134170253
106831.32337642432
110258.49220052545
115207.28333871653
122026.59975039498
130883.9869459414
141672.00179602572
153989.47780602705
167213.32961767356
100033.3696294285
100048.81863895855
100071.56614806791
100105.24996722696
100155.37061699637
100230.26427766932
100342.57527527657
100511.47086569887
100765.9296939315
101149.52328685315
101727.11198048173
102593.52549860523
103883.38042440535
105810.2844708369
108656.33780483798
112748.52262670052
118397.39067676189
125794.68875583864
134924.82416221246
145542.463807899
157199.45073494056
169322.27694591993
100032.00958023469
100046.05271217083
100066.55851524365
100096.71232256798
100141.30720547984
100207.57063567858
100306.40556989827
100454.23621128527
100675.72252293257
101007.65746136368
101504.3430236642
102244.45343435771
103338.79488440717
104961.9963657769
107345.5092347568
110763.85043498299
115494.57458623743
121739.97843998077
129544.51713195945
138756.8721798044
149052.90099550976
159982.13051654218
171031.163678903
100031.29128528427
100044.12969926337
100062.69095024091
100089.76260694141
100129.5187035116
100188.22347628974
100275.27863295644
100404.76867668393
100597.71119267272
100885.2561390971
101313.05331573905
101946.78536462066
102878.47737821905
104252.42520618615
106260.75835550296
109136.48665163148
113127.82300706046
118439.71815895935
125160.51568141006
133211.05631514193
142348.932791266
152213.89918864146
162380.07374305069
172398.5868967368
100043.10582237486
100059.99197414338
100084.38979889598
100119.93261837507
100172.04830688254
100248.84575726627
100362.41298560583
100530.69033203057
100780.11403693428
101149.20077818309
101693.07962842526
102488.70776606958
103656.17742718405
105356.30584875023
107787.97610331576
111172.54531019552
115711.61638713439
121525.01955820178
128594.38519458383
136745.79468543897
145683.3127402658
155041.03734681554
164433.07723856706
173473.17731734773
100058.54720608357
100080.63178256397
100112.52062859018
100158.91548476352
100226.81153706655
100326.59034102176
100473.58768281518
100690.29178340238
101009.3070735695
101477.10378642536
102158.40602620227
103153.7145481227
104598.37186806044
106662.60993335258
109542.97830795005
113432.73728123882
118472.27315167309
124693.61505624608
131987.2212695474
140113.49300111062
148752.52274598056
157553.67621172906
166177.7165426792
174300.00495126142
100078.61321274462
100107.32992277318
100148.76624168156
100208.95542743817
100296.81898629051
100425.48334500304
100614.11702183665
100890.39998349553
101293.65390170182
101878.56010427327
102729.60037976316
103961.10293846508
105718.99657470152
108176.94394322085
111516.33359095719
115888.33953620552
121364.14532275792
127893.43139022788
135295.06246682873
143289.94253593203
151556.3073047622
159772.57045340168
167648.88401669118
174913.38977123747
100104.53564996236
100141.65479777259
100195.1680674683
100272.74274771646
100385.62508477327
100550.18283871467
100789.9752923318
101138.3836001709
101641.78750701348
102371.453702847
103424.24173544928
104925.35297993191
107027.48434174212
109897.9533020144
113690.87317925833
118505.21286480453
124341.58602439391
131078.14814328682
138482.9745314422
146259.64746053747
154099.83354729894
161719.79289309616
168875.29554725115
175347.6069392156
100137.82099657587
100185.50614117092
100254.1722384821
100353.45730534595
100497.35588598839
100705.96271276868
101007.69701620672
101442.0293658392
102069.24924504617
102971.62984873597
104256.63742362731
106057.95333130712
108527.89328127539
111817.48077711141
116043.17423938237
121246.33980506836
127360.9557931406
134208.0612889042
141524.40130725614
149013.96040166685
156392.01690561368
163416.4526952208
169887.0003565645
175627.99462211877
100180.29220552396
100241.15989966193
100328.67344259989
100454.80371772624
100636.7166659843
100898.66210411598
101274.32436070277
101814.85248557234
102590.25292166701
103692.79581103825
105239.17292959878
107366.48876297179
110218.67933637966
113921.0957412685
118545.1640323779
124073.60656750115
130382.04022786718
137249.82518765092
144399.78711864076
151548.75974227212
158443.83221822034
164882.9765766292
170707.01770175982
175781.9204958511
100234.13245972518
100311.31056663019
100422.05281790784
100581.03093647836
100808.97213047046
101134.68114826127
101601.65359498258
102269.56119822343
103217.64839082355
104547.52276678129
106381.56224196414
108854.12092623342
112092.74212300453
116189.13818660018
121165.67492025108
126949.52874177902
133368.66063707272
140176.19897481415
147095.49781008315
153865.1539526763
160267.7118376745
166139.5571513576
171359.40573715922
175824.9859541608
100301.92693795798
100399.11163083576
100538.20730175616
100736.93689130318
101019.97248722336
101424.35378006526
102001.02262170415
102818.06221861133
103963.77148879573
105546.65486050484
107690.15587573759
110519.29250686448
114137.6718100107
118597.70149238114
123871.89588962498
129838.20937994432
136289.1284657314
142965.92077641547
149602.86540967468
155966.41456641737
161876.37551302658
167205.0821233707
171863.27454282856
175781.39576850698
100386.70492875577
100508.21214786473
100681.57362528538
100927.91802437196
101278.8281239577
101777.82334978055
102483.40340144609
103472.17602507013
104839.87414522705
106698.5582657062
109167.47953749436
112355.63202246664
116336.45317367683
121119.77529307676
126630.66898848304
132706.47035451353
139116.40895082479
145601.48250716316
151916.49281882288
157858.93480763547
163283.62504978833
168096.7570515317
172237.77303768185
175663.4170550869
100491.97885748373
100642.791590997
100857.18839314004
101162.09156586866
101594.66336443389
102205.1612489315
103059.94959978685
104243.15475460346
105855.54676794937
108008.66031021027
110811.94927550152
114352.22460311049
118668.12476155689
123726.3481508057
129409.50360979365
135523.6370949387
141827.75449902526
148071.48675354966
154034.92655723568
159549.15067353038
164502.132188188
168830.02051720186
172499.24484697788
175491.3668029599
100621.78735440699
100807.63121208204
101072.39074982643
101447.71722474713
101976.71779360542
102716.79727767188
103741.60547935386
105141.12584063396
107018.1290958997
109479.0006213794
112617.73770569665
116493.85575615896
121108.63231813893
126387.37744536143
132177.30930570926
138263.48319815024
144403.67918525756
150365.74093242717
155957.96246510508
161044.085503022
165544.10928650075
169420.5320712549
172664.92830390987
175285.6912175955
100780.77023745919
101009.50442016356
101334.74295244481
101793.30524652121
102434.71083092553
103323.22289223602
104538.68894666756
106174.67166588827
108332.2623574731
111107.8350439734
114574.85019134583
118761.65103261425
123631.52929766638
129072.6773316066
134904.30565727738
140901.6084243888
146829.38013831418
152478.06161380463
157687.0386685991
162351.57451946574
166420.39330419057
169881.8842606359
172752.13358104415
175083.41152810663
100975.3901533534
101255.4715152428
101652.15193110038
102207.91466677729
102978.58752253692
104034.62020302193
105460.39912197053
107350.24275626302
109799.44131933353
112889.63307222162
116669.24751393149
121133.48657747098
126209.00294833587
131752.16171735025
137563.64963228657
143416.53360551587
149090.840058682
154403.52760177478
159223.90778910197
163477.97856544534
167141.29527904963
170227.0584230377
172783.79648772895
174930.5939209308
101212.41283394767
101552.98479655955
102033.11182365479
102700.95389944961
103618.25596020064
104860.46635546241
106514.36253268538
108671.6936056014
111417.70043411614
114814.79832981905
118883.28292876303
123584.2848685689
128811.76900315526
134396.91655538508
140129.81923685287
145789.9102256874
151177.48584720647
156137.71195260168
160569.6638539745
164428.10097283425
167713.82482770432
170466.3888582673
172783.00648478756
101499.03650001335
101910.09110897775
102486.52728845156
103281.93684592859
104363.18176768583
105809.09220035854
107706.17542380725
110139.89755674607
113181.33971855088
116869.91295805947
121195.88605897423
126087.82081599547
131410.72195189184
136978.7008505493
142579.25625451462
148004.48099838576
153078.5436030157
157675.120162503
161722.99626997765
165202.65941991514
168137.8260406404
170600.81290601706
101843.04689403271
102335.30325816241
103021.51979668692
103960.18311424615
105222.0166841612
106887.18561005588
109038.8172575836
111752.38078687635
115080.861620736
119037.87482599003
123583.12358321887
128615.13044042251
133976.0310847846
139470.26154349747
144889.287898143
150043.42733934658
154782.7270762947
159009.27969384272
162677.64597580244
165791.0370477234
168392.2925192501
102252.70725329599
102837.39809136739
103647.16028684363
104744.42740333897
106202.17554022334
108099.31994029609
110512.33964504577
113502.92656563179
117102.53280208952
121297.55595005542
126017.85306721763
131135.93362035902
136477.70955725232
141844.045159503
147037.22551697926
151889.1737833921
156275.8137645337
160125.2922116921
163413.4365062251
166152.1416907866
102736.59383804852
103425.19321353846
104372.12892262709
105642.43903967834
107309.30763866793
109447.51300348817
112123.41063356101
115381.51772072731
119229.24103350073
123624.8498562726
128471.15839697477
133619.22811631585
138885.01913266722
144072.18367764162
148999.20657583827
153519.99213887958
157535.74927971963
160992.6101151771
163869.47095214366
103303.34468619245
104107.25323213593
105204.34245257906
106660.58464574051
108546.82047959231
110930.66141694062
113864.90285468537
117373.66173639802
121439.28907588533
125992.31891966835
130911.13144773008
136031.7353773173
141165.61442737875
146125.11309612135
150746.81285183606
154906.0718195962
158520.62036806994
161533.37401363638
103961.41188140157
104891.51363807543
106150.55377804741
107803.2516178747
109915.40907663284
112544.15695199597
115725.43918940309
119460.96917788414
123706.80434096912
128367.91974993378
133303.23419307824
138337.52513367875
143284.11793748382
147967.51656646386
152241.8310122607
155995.39393127547
159136.67051876173
104718.71324975419
105784.88266090046
107215.78244064788
109072.36123492275
111412.27880300107
114279.12063991795
117689.23531709754
121620.06788141941
126001.91823463034
130717.3940899689
135608.85904975206
140496.52618753823
145198.9411051931
149552.9042409236
153421.05654895643
156677.16225385587
105582.20240086954
106792.77947989969
108402.85876859605
110466.84815083904
113031.16437958203
116122.47070159213
119735.46431338892
123822.5715946597
128289.76374055042
132999.75865355233
137783.85031585552
142461.18182691612
146856.0010797983
150808.28608181316
154159.95772902755
106557.4368689177
107918.55389150658
109711.83484202833
111981.92837655146
114760.8657659153
118055.69346180953
121837.8576183743
126034.46498782039
130529.39989331801
135168.95871770932
139776.84636117087
144170.4518994106
148172.73905574257
151595.3326174123
107648.05269681121
109162.94206550939
111139.07235236687
113608.27567502516
116585.06027822697
120054.56873975572
123963.5036122535
128214.99858955387
132672.71346208596
137168.77811157316
141519.55796138328
145533.9813012457
148998.70405991125
108855.09066825228
110523.31852080725
112677.07040331083
115331.91490230476
118481.72083621612
122088.09549720981
126072.43028179207
130315.03923913548
134660.1589668231
138926.6151105845
142914.09252125432
146389.5053380155
110176.46747584002
111993.00614096361
114312.94734588003
117132.16323023778
120421.6089167094
124117.38270457843
128115.51458102925
132273.47653681308
136415.44780088917
140337.46250035055
143790.02649021227
111606.02948474293
113560.44994828358
116028.02348100244
118981.831732334
122367.28995766125
126093.5914230887
130030.60311828282
134010.89345645971
137829.11199942112
141224.62274926502
113132.85147690796
115208.10334214204
117796.43639328724
120844.87850724485
124270.84380460576
127954.42705461064
131736.4129717945
135413.69705500812
138718.09889529692
114740.05554646578
116911.29078782715
119583.65733645664
122674.5132319937
126070.17633795713
129617.91967592646
133117.36809491107
136296.6829180063
116403.61898165937
118636.62713754596
121344.01851945456
124409.9470246524
127683.62361286225
130967.58884516546
133987.09047369985
118090.95580787548
120339.82307644091
123018.24293465023
125970.02253031946
128995.52238147703
131817.94539358807
119758.55675620961
121962.33258506756
124526.02424079664
127239.94999666302
129822.00978282695
121348.65310441371
123425.55893974261
125754.79595402854
128040.26114839202
122783.57676448538
124618.77435231682
126528.60025546458
123953.81803719983
125369.66770815177
124690.0557694436
SCALARS T float 1
LOOKUP_TABLE default
300.12586116077364
300.12554121338894
300.17778218938065
300.1234459713525
300.17762787052595
300.2537278951525
300.1198614927294
300.1746920697388
300.25386536561473
300.365341074311
300.11505911631957
300.1694918315926
300.2495510044202
300.3659510082951
300.5303244676476
300.10931215863525
300.1624885888492
300.2416897684752
300.3593075529039
300.5316611342929
300.7760127004065
300.1028900784773
300.1541225623909
300.2310873377476
300.34700175676505
300.5209558081675
300.7783519140596
301.14551906414044
300.0960467399262
300.1448106371229
300.21849017055126
300.3304694363731
300.501083289207
300.7602848659679
301.14878882241186
301.7089320096895
300.0890097953074
300.13493354828347
300.2045784517188
300.31101218966256
300.47466444548485
300.727225643802
301.1167205265716
301.71114454936435
302.58556691756075
300.0819739413975
300.12482419365085
300.1899491876166
300.28977068231836
300.44401179361705
300.6840894674024
301.06005365328855
301.6508913969898
302.57673053876294
303.9934056161044
300.0750982942786
300.1147609771554
300.17510408163986
300.26770036658263
300.4110588622307
300.6350296736444
300.9882280302177
301.55070809385006
302.45609942948886
303.93225223705537
306.37532493678606
300.06850706167506
300.1049666683686
300.16044711350804
300.2455669059892
300.37734077853617
300.5833196365371
300.9087097524971
301.42898168126044
302.27339495924645
303.674137283325
306.09695304409354
310.76983575600383
300.06229260467137
300.0956116018893
300.14628923332106
300.2239549025136
300.3440143840942
300.53138857572554
300.8269448096187
301.29890935727167
302.0641179969089
303.3315111484082
305.51036264974374
309.59642654366525
320.0116002764929
300.05651973408135
300.0868195393181
300.1328585008743
300.20329083518067
300.3119104634926
300.4809393624926
300.7466414270971
301.169155860025
301.85039394189494
302.9688092507121
304.8564809679497
308.2166776787482
315.0109224492333
328.0555201136281
300.0512305706276
300.0786749026487
300.12031281339284
300.18386837907235
300.2815899437318
300.4330942647908
300.6701641384231
301.0449991819589
301.64480086069216
302.6185876832878
304.23030651175446
306.9790393496052
311.9142907198434
320.7945553386659
334.1135547259382
300.04644946218815
300.071230253808
300.1087530336796
300.1658746610021
300.25340441356167
300.3885372841578
300.5988992815121
300.92937534033194
301.45382295023364
302.29555931746216
303.6642763386375
305.9254930209665
309.72913449388705
316.1745218781091
326.10753175376675
338.8986174831099
300.0421875471479
300.06451371411544
300.0982355463034
300.1494150494243
300.2275482359151
300.3476317256276
300.5335501601329
300.82368402623445
301.2802706468191
302.00510161352156
303.1657757437427
305.0385426505631
308.0689976361531
312.9921543159533
320.5414248969062
330.78193461844387
342.7663529874189
300.0384469082734
300.0585354535586
300.08878371656857
300.1345336722051
300.2041000838502
300.31051764836127
300.4743659921951
300.7283608864551
301.1248375285504
301.747873338967
302.73244196316625
304.29270937099426
306.75527798561177
310.6466650619841
316.5488508558353
324.7348961810503
334.83888470829015
345.9254592293417
300.03522433446255
300.0532936073858
300.08039763129943
300.1212320089734