# vtk DataFile Version 2.0
JuliaCFD
ASCII
DATASET UNSTRUCTURED_GRID

POINTS 1900 float
0.0 0.0 0.005
0.0 0.0416667 0.005
0.0 0.0833333 0.005
0.0 0.125 0.005
0.0 0.166667 0.005
0.0 0.208333 0.005
0.0 0.25 0.005
0.0 0.291667 0.005
0.0 0.333333 0.005
0.0 0.375 0.005
0.0 0.416667 0.005
0.0 0.458333 0.005
0.0 0.5 0.005
0.0 0.541667 0.005
0.0 0.583333 0.005
0.0 0.625 0.005
0.0 0.666667 0.005
0.0 0.708333 0.005
0.0 0.75 0.005
0.0 0.791667 0.005
0.0 0.833333 0.005
0.0 0.875 0.005
0.0 0.916667 0.005
0.0 0.958333 0.005
0.0 1.0 0.005
0.0409575 0.0 0.005
0.0409401 0.0416667 0.005
0.0409227 0.0833333 0.005
0.0409054 0.125 0.005
0.040888 0.166667 0.005
0.0408706 0.208333 0.005
0.0408532 0.25 0.005
0.0408359 0.291667 0.005
0.0408185 0.333333 0.005
0.0408011 0.375 0.005
0.0407838 0.416667 0.005
0.0407664 0.458333 0.005
0.040749 0.5 0.005
0.0407316 0.541667 0.005
0.0407143 0.583333 0.005
0.0406969 0.625 0.005
0.0406795 0.666667 0.005
0.0406621 0.708333 0.005
0.0406448 0.75 0.005
0.0406274 0.791667 0.005
0.04061 0.833333 0.005
0.0405927 0.875 0.005
0.0405753 0.916667 0.005
0.0405579 0.958333 0.005
0.0405405 1.0 0.005
0.0819149 0.0 0.005
0.0818802 0.0416667 0.005
0.0818455 0.0833333 0.005
0.0818107 0.125 0.005
0.081776 0.166667 0.005
0.0817412 0.208333 0.005
0.0817065 0.25 0.005
0.0816717 0.291667 0.005
0.081637 0.333333 0.005
0.0816022 0.375 0.005
0.0815675 0.416667 0.005
0.0815328 0.458333 0.005
0.081498 0.5 0.005
0.0814633 0.541667 0.005
0.0814285 0.583333 0.005
0.0813938 0.625 0.005
0.081359 0.666667 0.005
0.0813243 0.708333 0.005
0.0812895 0.75 0.005
0.0812548 0.791667 0.005
0.0812201 0.833333 0.005
0.0811853 0.875 0.005
0.0811506 0.916667 0.005
0.0811158 0.958333 0.005
0.0810811 1.0 0.005
0.122872 0.0 0.005
0.12282 0.0416667 0.005
0.122768 0.0833333 0.005
0.122716 0.125 0.005
0.122664 0.166667 0.005
0.122612 0.208333 0.005
0.12256 0.25 0.005
0.122508 0.291667 0.005
0.122455 0.333333 0.005
0.122403 0.375 0.005
0.122351 0.416667 0.005
0.122299 0.458333 0.005
0.122247 0.5 0.005
0.122195 0.541667 0.005
0.122143 0.583333 0.005
0.122091 0.625 0.005
0.122039 0.666667 0.005
0.121986 0.708333 0.005
0.121934 0.75 0.005
0.121882 0.791667 0.005
0.12183 0.833333 0.005
0.121778 0.875 0.005
0.121726 0.916667 0.005
0.121674 0.958333 0.005
0.121622 1.0 0.005
0.16383 0.0 0.005
0.16376 0.0416667 0.005
0.163691 0.0833333 0.005
0.163621 0.125 0.005
0.163552 0.166667 0.005
0.163482 0.208333 0.005
0.163413 0.25 0.005
0.163343 0.291667 0.005
0.163274 0.333333 0.005
0.163204 0.375 0.005
0.163135 0.416667 0.005
0.163066 0.458333 0.005
0.162996 0.5 0.005
0.162927 0.541667 0.005
0.162857 0.583333 0.005
0.162788 0.625 0.005
0.162718 0.666667 0.005
0.162649 0.708333 0.005
0.162579 0.75 0.005
0.16251 0.791667 0.005
0.16244 0.833333 0.005
0.162371 0.875 0.005
0.162301 0.916667 0.005
0.162232 0.958333 0.005
0.162162 1.0 0.005
0.204787 0.0 0.005
0.2047 0.0416667 0.005
0.204614 0.0833333 0.005
0.204527 0.125 0.005
0.20444 0.166667 0.005
0.204353 0.208333 0.005
0.204266 0.25 0.005
0.204179 0.291667 0.005
0.204092 0.333333 0.005
0.204006 0.375 0.005
0.203919 0.416667 0.005
0.203832 0.458333 0.005
0.203745 0.5 0.005
0.203658 0.541667 0.005
0.203571 0.583333 0.005
0.203484 0.625 0.005
0.203398 0.666667 0.005
0.203311 0.708333 0.005
0.203224 0.75 0.005
0.203137 0.791667 0.005
0.20305 0.833333 0.005
0.202963 0.875 0.005
0.202876 0.916667 0.005
0.20279 0.958333 0.005
0.202703 1.0 0.005
0.245745 0.0 0.005
0.245641 0.0416667 0.005
0.245536 0.0833333 0.005
0.245432 0.125 0.005
0.245328 0.166667 0.005
0.245224 0.208333 0.005
0.245119 0.25 0.005
0.245015 0.291667 0.005
0.244911 0.333333 0.005
0.244807 0.375 0.005
0.244703 0.416667 0.005
0.244598 0.458333 0.005
0.244494 0.5 0.005
0.24439 0.541667 0.005
0.244286 0.583333 0.005
0.244181 0.625 0.005
0.244077 0.666667 0.005
0.243973 0.708333 0.005
0.243869 0.75 0.005
0.243764 0.791667 0.005
0.24366 0.833333 0.005
0.243556 0.875 0.005
0.243452 0.916667 0.005
0.243347 0.958333 0.005
0.243243 1.0 0.005
0.286702 0.0 0.005
0.286581 0.0416667 0.005
0.286459 0.0833333 0.005
0.286337 0.125 0.005
0.286216 0.166667 0.005
0.286094 0.208333 0.005
0.285973 0.25 0.005
0.285851 0.291667 0.005
0.285729 0.333333 0.005
0.285608 0.375 0.005
0.285486 0.416667 0.005
0.285365 0.458333 0.005
0.285243 0.5 0.005
0.285121 0.541667 0.005
0.285 0.583333 0.005
0.284878 0.625 0.005
0.284757 0.666667 0.005
0.284635 0.708333 0.005
0.284513 0.75 0.005
0.284392 0.791667 0.005
0.28427 0.833333 0.005
0.284149 0.875 0.005
0.284027 0.916667 0.005
0.283905 0.958333 0.005
0.283784 1.0 0.005
0.32766 0.0 0.005
0.327521 0.0416667 0.005
0.327382 0.0833333 0.005
0.327243 0.125 0.005
0.327104 0.166667 0.005
0.326965 0.208333 0.005
0.326826 0.25 0.005
0.326687 0.291667 0.005
0.326548 0.333333 0.005
0.326409 0.375 0.005
0.32627 0.416667 0.005
0.326131 0.458333 0.005
0.325992 0.5 0.005
0.325853 0.541667 0.005
0.325714 0.583333 0.005
0.325575 0.625 0.005
0.325436 0.666667 0.005
0.325297 0.708333 0.005
0.325158 0.75 0.005
0.325019 0.791667 0.005
0.32488 0.833333 0.005
0.324741 0.875 0.005
0.324602 0.916667 0.005
0.324463 0.958333 0.005
0.324324 1.0 0.005
0.368617 0.0 0.005
0.368461 0.0416667 0.005
0.368305 0.0833333 0.005
0.368148 0.125 0.005
0.367992 0.166667 0.005
0.367835 0.208333 0.005
0.367679 0.25 0.005
0.367523 0.291667 0.005
0.367366 0.333333 0.005
0.36721 0.375 0.005
0.367054 0.416667 0.005
0.366897 0.458333 0.005
0.366741 0.5 0.005
0.366585 0.541667 0.005
0.366428 0.583333 0.005
0.366272 0.625 0.005
0.366116 0.666667 0.005
0.365959 0.708333 0.005
0.365803 0.75 0.005
0.365647 0.791667 0.005
0.36549 0.833333 0.005
0.365334 0.875 0.005
0.365178 0.916667 0.005
0.365021 0.958333 0.005
0.364865 1.0 0.005
0.409575 0.0 0.005
0.409401 0.0416667 0.005
0.409227 0.0833333 0.005
0.409054 0.125 0.005
0.40888 0.166667 0.005
0.408706 0.208333 0.005
0.408532 0.25 0.005
0.408359 0.291667 0.005
0.408185 0.333333 0.005
0.408011 0.375 0.005
0.407838 0.416667 0.005
0.407664 0.458333 0.005
0.40749 0.5 0.005
0.407316 0.541667 0.005
0.407143 0.583333 0.005
0.406969 0.625 0.005
0.406795 0.666667 0.005
0.406621 0.708333 0.005
0.406448 0.75 0.005
0.406274 0.791667 0.005
0.4061 0.833333 0.005
0.405927 0.875 0.005
0.405753 0.916667 0.005
0.405579 0.958333 0.005
0.405405 1.0 0.005
0.450532 0.0 0.005
0.450341 0.0416667 0.005
0.45015 0.0833333 0.005
0.449959 0.125 0.005
0.449768 0.166667 0.005
0.449577 0.208333 0.005
0.449386 0.25 0.005
0.449195 0.291667 0.005
0.449003 0.333333 0.005
0.448812 0.375 0.005
0.448621 0.416667 0.005
0.44843 0.458333 0.005
0.448239 0.5 0.005
0.448048 0.541667 0.005
0.447857 0.583333 0.005
0.447666 0.625 0.005
0.447475 0.666667 0.005
0.447284 0.708333 0.005
0.447093 0.75 0.005
0.446901 0.791667 0.005
0.44671 0.833333 0.005
0.446519 0.875 0.005
0.446328 0.916667 0.005
0.446137 0.958333 0.005
0.445946 1.0 0.005
0.49149 0.0 0.005
0.491281 0.0416667 0.005
0.491073 0.0833333 0.005
0.490864 0.125 0.005
0.490656 0.166667 0.005
0.490447 0.208333 0.005
0.490239 0.25 0.005
0.49003 0.291667 0.005
0.489822 0.333333 0.005
0.489613 0.375 0.005
0.489405 0.416667 0.005
0.489197 0.458333 0.005
0.488988 0.5 0.005
0.48878 0.541667 0.005
0.488571 0.583333 0.005
0.488363 0.625 0.005
0.488154 0.666667 0.005
0.487946 0.708333 0.005
0.487737 0.75 0.005
0.487529 0.791667 0.005
0.48732 0.833333 0.005
0.487112 0.875 0.005
0.486903 0.916667 0.005
0.486695 0.958333 0.005
0.486486 1.0 0.005
0.531954 0.00563435 0.005
0.531749 0.0470663 0.005
0.531544 0.0884982 0.005
0.531338 0.12993 0.005
0.531133 0.171362 0.005
0.530928 0.212794 0.005
0.530722 0.254226 0.005
0.530517 0.295658 0.005
0.530312 0.33709 0.005
0.530107 0.378521 0.005
0.529901 0.419953 0.005
0.529696 0.461385 0.005
0.529491 0.502817 0.005
0.529285 0.544249 0.005
0.52908 0.585681 0.005
0.528875 0.627113 0.005
0.528669 0.668545 0.005
0.528464 0.709977 0.005
0.528259 0.751409 0.005
0.528054 0.79284 0.005
0.527848 0.834272 0.005
0.527643 0.875704 0.005
0.527438 0.917136 0.005
0.527232 0.958568 0.005
0.527027 1.0 0.005
0.572289 0.0127465 0.005
0.572093 0.0538821 0.005
0.571896 0.0950177 0.005
0.571699 0.136153 0.005
0.571502 0.177289 0.005
0.571306 0.218424 0.005
0.571109 0.25956 0.005
0.570912 0.300695 0.005
0.570715 0.341831 0.005
0.570519 0.382967 0.005
0.570322 0.424102 0.005
0.570125 0.465238 0.005
0.569928 0.506373 0.005
0.569732 0.547509 0.005
0.569535 0.588644 0.005
0.569338 0.62978 0.005
0.569142 0.670916 0.005
0.568945 0.712051 0.005
0.568748 0.753187 0.005
0.568551 0.794322 0.005
0.568355 0.835458 0.005
0.568158 0.876593 0.005
0.567961 0.917729 0.005
0.567764 0.958864 0.005
0.567568 1.0 0.005
0.612625 0.0198587 0.005
0.612436 0.0606979 0.005
0.612248 0.101537 0.005
0.61206 0.142376 0.005
0.611872 0.183216 0.005
0.611684 0.224055 0.005
0.611496 0.264894 0.005
0.611307 0.305733 0.005
0.611119 0.346572 0.005
0.610931 0.387412 0.005
0.610743 0.428251 0.005
0.610555 0.46909 0.005
0.610366 0.509929 0.005
0.610178 0.550769 0.005
0.60999 0.591608 0.005
0.609802 0.632447 0.005
0.609614 0.673286 0.005
0.609425 0.714125 0.005
0.609237 0.754965 0.005
0.609049 0.795804 0.005
0.608861 0.836643 0.005
0.608673 0.877482 0.005
0.608484 0.918322 0.005
0.608296 0.959161 0.005
0.608108 1.0 0.005
0.65296 0.0269708 0.005
0.65278 0.0675137 0.005
0.652601 0.108057 0.005
0.652421 0.148599 0.005
0.652241 0.189142 0.005
0.652062 0.229685 0.005
0.651882 0.270228 0.005
0.651702 0.310771 0.005
0.651523 0.351314 0.005
0.651343 0.391857 0.005
0.651164 0.4324 0.005
0.650984 0.472943 0.005
0.650804 0.513485 0.005
0.650625 0.554028 0.005
0.650445 0.594571 0.005
0.650265 0.635114 0.005
0.650086 0.675657 0.005
0.649906 0.7162 0.005
0.649726 0.756743 0.005
0.649547 0.797286 0.005
0.649367 0.837828 0.005
0.649188 0.878371 0.005
0.649008 0.918914 0.005
0.648828 0.959457 0.005
0.648649 1.0 0.005
0.693295 0.034083 0.005
0.693124 0.0743295 0.005
0.692953 0.114576 0.005
0.692782 0.154823 0.005
0.692611 0.195069 0.005
0.69244 0.235316 0.005
0.692269 0.275562 0.005
0.692098 0.315809 0.005
0.691926 0.356055 0.005
0.691755 0.396302 0.005
0.691584 0.436548 0.005
[...]
CELL_DATA 888
SCALARS P float 1
LOOKUP_TABLE default
100137.92494430994
100137.58242433066
100194.59833110387
100135.22607111679
100194.47159321255
100277.47749974587
100131.1814316235
100191.1971333031
100277.74194491339
100399.00254634803
100125.75626674728
100185.36224297916
100272.98317743816
100399.93397233264
100577.79368438614
100119.26025757901
100177.48825926406
100264.22595902393
100392.71213504372
100579.83721711028
100842.07856424295
100111.99878615764
100168.07151031768
100252.3760418178
100379.13038668635
100568.41007196247
100845.89657699375
101235.53907467736
100104.25978340504
100157.58208776923
100238.27016971156
100360.79247589693
100546.73113231444
100827.02005358008
101241.83892682947
101828.12176822053
100096.30168902369
100146.44989046898
100222.67100648317
100339.14744446948
100517.70431135586
100791.45796715522
101209.09137427964
101836.44876623208
102738.59850719411
100088.34571473097
100135.0514945291
100206.2493686389
100315.4661302759
100483.88369922225
100744.6054064577
101149.09103583658
101776.17877443705
102741.7354682079
104189.02767845412
100080.57274488697
100123.7024583784
100189.57074639016
100290.81653609562
100447.40849186394
100691.01003849841
101072.09715940325
101671.797069258
102622.6006362305
104149.20346013755
106659.502923435
100073.12398309716
100112.65575962074
100173.09213233415
100266.05870217588
100409.98565674228
100634.26780826475
100986.21532162739
101543.109929703
102434.80090680135
103893.71420957724
106405.00088117585
111405.53920913087
100066.10433736304
100102.10513273768
100157.16664782476
100241.85326298523
100372.91119033156
100577.06753802228
100897.39056222593
101404.3440478866
102216.3638585999
103543.82981896472
105810.20676323256
110145.09455860926
122508.95703159877
100059.587243425
100092.19147521455
100142.05432205359
100218.68555645991
100337.12485608307
100521.31570577371
100809.71716057613
101264.92065959632
101991.04657880135
103168.55787796133
105138.39334739989
108673.63554774356
116260.31706423726
132794.80121515796
100053.62016330924
100083.0108826495
100127.9359185252
100196.89256352953
100303.26913345461
100468.28897416336
100725.8532295436
101130.679866594
101772.53018636735
102802.82448345874
104491.18548014156
107371.82778687733
112704.37631046587
123090.0177761201
140846.36591383163
100048.23017773576
100074.62303890666
100114.92739819903
100176.69129272422
100271.75365042393
100418.78371596511
100647.40187907901
101004.97298630941
101568.08079362825
102462.73631338478
103902.78002987512
106271.91548816957
110313.85916489274
117493.80828122294
129617.58875975877
147367.3539049376
100043.42919669356
100067.05959983732
100103.09390122948
100158.20591773272
100242.81121876005
100373.24030405865
100575.2197126595
100889.49961321802
101381.07389333186
102154.61391092415
103381.24945391701
105347.42519453868
108544.09825977769
113875.6813558891
122563.2872573905
135554.88612934612
152733.39694174315
100039.21871674148
100060.3315705877
100092.46262280177
100141.49048660678
100216.54300578542
100331.84745596646
100509.65809643244
100784.90365312967
101212.6069084813
101879.8013411802
102924.77899339334
104568.21021491406
107160.33287401164
111310.54148076431
117851.3699713046
127586.56708334791
140852.50994097092
157173.9112183178
100035.59413792437
100054.43606052294
100083.03384472393
100126.54972370497
100192.95907315581
100294.62011587934
100450.73142111172
100691.16747686661
101062.47641234826
101637.17791924163
102528.03348642313
103909.11472954879
106043.77816694643
109372.36330314403
114489.37565416633
122022.13035442075
132387.8916179099
145533.37560974754
160847.2073288396
100032.54858306548
100049.36227205345
100074.79037349211
100113.35472785884
100172.00716774499
100261.46021558827
100398.2454830071
100607.88811042703
100929.77054199767
101424.48484263448
102184.67568170576
103350.0854843408
105125.89437863824
107846.57790540901
111958.25436789807
117952.48191176391
126221.2777972081
136876.72065026296
149640.18807110385
163872.54851871138
100030.07669107628
100045.09687780193
100067.70620508431
100101.85735204161
100153.59852568613
100232.2006857942
100351.88368461998
100534.44772681934
100813.23542884571
101239.01464194046
101888.38633033344
102875.01528995109
104362.62776313245
106614.1058013439
109977.80491369334
114848.80988016656
121576.66194264204
130331.67290579168
141011.10250863645
153220.20981408228
166344.66397516622
100028.17889892179
100041.62944737471
100061.75378220886
100092.00073937392
100137.62440115862
100206.63900292458
100311.26791001219
100470.12836420603
100711.48293643341
101077.97819419575
101633.29719615876
102470.8092198374
103723.38106198127
105602.26427923661
108387.30406131371
112403.92042783629
117962.49048204909
125256.57514145943
134274.40556981962
144776.03579267286
156320.1334315238
168342.10711160506
100026.867159667
100038.95899381071
100056.9118251731
100083.73052547201
100123.97339412684
100184.56190495004
100275.99977420899
100414.19067347367
100623.11791365898
100938.70079574507
101414.12766281798
102126.68408012958
103185.4919008418
104762.86914461358
107087.91350174771
110433.22243154571
115075.48119149957
121217.88245740999
128907.83345672284
137998.69131355674
148172.14534126525
158984.74746933035
169932.05965131446
100026.17459454824
100037.10338428474
100053.17512284416
100077.0050799522
100112.54373525325
100165.7646459305
100245.69114460314
100365.91542454745
100546.81613927445
100818.71890343187
101226.22170499276
101833.69024341933
102731.53688698201
104061.81228663663
106014.25582611299
108819.70518987827
112724.943948931
117934.97076557092
124540.1679378223
132465.33943925123
141473.36940257705
151210.10684776015
161256.71544878843
171173.22902685008
100036.11570600292
100050.56895344038
100071.80982840664
100103.25882112798
100150.06779210836
100219.98718915904
100324.63962093063
100481.36246100719
100715.81472780174
101065.52087258948
101584.36351502195
102347.76197529241
103473.6459091644
105120.44929739478
107484.72163807438
110785.96163540798
115225.07716817471
120923.02016869474
127864.57821906936
135880.62609311097
144680.91103839953
153905.7125696602
163176.08523378003
172114.54905050356
100049.17431850503
100068.1781473504
100096.0856551366
100137.33655284815
100198.58656337348
100289.77743917848
100425.67617262801
100628.03854993379
100928.53379652681
101372.45451511875
102023.0628612682
102978.78993372794
104372.63582897325
106372.41116181463
109172.49416092935
112964.83510645886
117890.0705278318
123982.49828368718
131136.75188824735
139118.63678461942
147614.1192613935
156278.6815885998
164779.8556828028
172801.57573796672
100066.22809647817
100091.06527177201
100127.50607703981
100181.26239044356
100260.8402181101
100378.82957287614
100553.70903679504
100812.27770322384
101192.74604489507
101748.40958914076
102561.77869561792
103744.90461898154
105441.26473311923
107822.13690517885
111067.11492627056
115326.84477629296
120673.85873373327
127061.24407354617
134312.89123646714
142155.49917451505
150273.19494361372
158350.31506216683
166103.56901867432
173269.46622712607
100088.36363736691
100120.6223312073
100167.897513412
100237.46406845335
100340.0625093542
100491.41089314008
100714.23923609962
101040.88128104077
101516.40580852458
102210.20905783285
103216.95623977666
104659.41005828098
106687.75371061971
109467.14606567484
113150.51022197801
117837.27704604299
123530.58595522516
130113.05077142984
137358.4169442121
144976.23255076862
152663.94433619085
160143.45604310255
167176.86480036716
173553.56430393623
100116.91262639008
100158.53772059045
100219.44976155234
100308.81017683109
100440.00191064076
100632.3393572861
100913.25530316401
101320.98207872972
101914.0404725469
102772.60226013283
104001.73987552003
105732.56169178628
108114.96283413442
111298.24596147054
115398.52004485369
120458.75247443304
126416.62946555039
133098.5462374009
140247.33370595187
147572.93332173268
154796.17071736755
161680.2804031497
168031.0568559783
173680.80143115285
100153.48870284826
100206.8355041148
100284.75368712505
100398.63873398904
100564.92266586931
100806.92701108693
101157.16838528476
101665.1264577896
102398.80634568688
103448.15370931025
104927.27741900926
106970.69468228961
109720.20796941491
113300.1187241882
117782.54775012696
123153.0474701961
129292.04603074837
135984.9561265763
142960.88739055576
149942.46955924065
156682.0350482019
162982.57930373066
168690.8217687879
173680.50510645896
100200.0256214655
100267.91172454176
100366.8325780591
100510.7701865773
100719.57877406049
101020.9636240107
101456.84705245812
102085.00309593987
102982.43750055114
104248.20487295416
106002.00291184982
108375.75079383292
111495.36508890585
115452.41437115138
120271.15988740025
125882.84523723205
132121.20505694134
138745.88545295355
145486.5243562733
152087.25313421196
158335.48929325104
164072.33461154765
169182.38399235086
173570.9892387523
100258.81309420332
100344.56834351178
100469.16488011858
100649.50561619831
100909.22827395688
101283.8932520538
101822.64789586078
102591.43355971454
103676.055543898
105182.3057727189
107230.98787698623
109945.0373958592
113427.1822220119
117730.79659910419
122831.58205567733
128612.73301518364
134873.27183605576
141361.22210096286
147816.96620830483
154012.1859041979
159771.1322669844
164970.7533274225
169527.65357343783
173379.7811051137
100332.53236897638
100440.04312873345
100595.70147050856
100819.66493025742
101142.12607388092
101604.9133505167
102264.48814096599
103195.0455485037
104489.61964171987
106257.50736793815
108615.5361006748
111671.2012003781
115498.0416174151
120108.13047790693
125431.03466972911
131310.3620172271
137522.4092219943
143814.95512023603
149948.61581650184
155725.74871529138
161005.23019844558
165697.9726189125
169749.2844861827
173123.46063744565
100424.28860105139
100558.03762809231
100750.91510004198
101028.53882606841
101426.4820013997
101993.07080078096
102792.35417702496
103905.80794208284
105431.3829374822
107477.94830667136
110152.96159720306
113542.56424077936
117686.68956968647
122555.64499488633
128037.7860378749
133946.26526523926
140047.4458972324
146097.58939072225
151882.2330575869
157236.90438688843
162053.51639684162
166273.06003943982
169868.01315481946
172827.57746481345
100537.64683629526
100702.7784403698
100941.3420109486
101283.50057757167
101770.54013931101
102457.65639915242
103415.9255888536
104732.50687926779
106507.35127940612
108844.46820469612
111836.52808292708
115543.44693295952
119969.15085867645
125043.953331228
130621.9298537379
136495.84892369574
142430.91153945518
148201.2949357055
153620.37370384182
158555.88300434384
162931.9817461148
166716.2058209303
169906.4594776071
172519.09111395836
100676.69753160671
100880.25399263487
101173.6819460645
101592.0918448948
102182.90836717347
103007.91781537623
104144.18067371404
105682.3601249861
107720.89257855648
110354.29127195069
113655.60962789845
117654.8778212037
122319.4952852235
127543.98895797938
133155.3462881762
138936.82168948365
144660.5077301437
150122.78291561655
155167.7307493424
159694.44333088445
163656.12285130785
167046.48202044255
169888.41017190545
172242.37477649987
100847.1279138034
101096.67930145445
101454.89565969609
101962.28637848298
102672.31345653164
103652.71055030066
104984.94299326626
106760.49148462802
109072.36471427753
112001.10043697733
115595.89724913886
119855.08991451238
124710.92705816274
130027.30532820063
135613.3620607875
141250.34464238933
146725.28357756115
151860.68279927975
156530.14808347708
160663.76404147522
164241.83907419126
167283.4027024265
169844.20100075117
172050.97211190106
101054.86946592953
101358.57791857705
101792.41445557411
102402.29714681467
103247.35209345732
104400.1338068794
105944.47701818343
107969.53727224546
110558.88445290689
113774.86174658935
117639.92237596794
122119.8900187221
127115.74117784387
132467.1915705264
137973.20708837974
143421.29454897952
148618.38113354318
153414.75174849856
157713.66678965522
161474.35406976443
164702.73951676866
167444.680418095
169804.09327000254
101306.20091921001
101672.9526310854
102193.97057019605
102920.34826283173
103916.1192907495
105257.13535523627
107027.09704342551
109309.34446526862
112174.15825955015
115662.16153043517
119767.3382520685
124424.52429390438
129507.03051263318
134838.24647822918
140214.7103115216
145436.3243677268
150333.47997770156
154784.55762213666
158722.86233576093
162133.6265515569
165046.09812892403
167538.4584877843
101607.87516888349
102047.16087287266
102667.41512523133
103524.39909655578
104685.8775598868
106229.08147341544
108234.67038244533
110776.7048103765
113908.51803170473
117646.4418397738
121955.55931456726
126742.19011285705
131857.85010698257
137116.74020602147
142319.29738265453
147283.27836848068
151864.47058227792
155969.69620986516
159558.2947701233
162638.48276008028
165258.2500725718
101967.0118170045
102488.72657088561
103220.47403647823
104221.79770417964
105562.69211137498
107319.36516382967
109566.39978974072
112365.07672472719
115748.6074885469
119707.78028321214
124179.51791892962
129045.5046054475
134141.85377382653
139279.4080230716
144269.1729229361
148950.08208267018
153203.34399164084
156962.2794389086
160207.45093833053
162955.39463518545
102390.94360273994
103005.1378822565
103860.44797771872
105018.95284145777
106550.9849860894
108529.06081656128
111018.48566160514
114064.64487149676
117678.3393211303
121824.01220140024
126413.15802754808
131307.16981549448
136332.75320479972
141303.49788768467
146046.22667074658
150421.2984412939
154335.34444705574
157739.60415209326
160617.26215886514
102886.99004362036
103603.58796940214
104593.89097527383
105920.97050501236
107653.15241165647
109856.48320496656
112583.84871862197
115861.78322421326
119677.82789655855
123970.49655279527
128628.31553637245
133498.50460860293
138403.53982555648
143165.4595024355
147628.6848605556
151674.63233695348
155226.61717408273
158231.98300887542
103462.24042337414
104290.65328739969
105426.27920763337
106931.1782615374
108869.20935368532
111296.93067187094
114251.80787662815
117739.74724677052
121723.90131139912
126118.94061540114
130795.15354036112
135589.1215849245
140325.1308698683
144836.9692160601
148985.91076024735
152666.51330313366
155791.989847246
104123.25591657695
105071.96193322976
106361.54102771511
108050.74924014407
110196.1571962389
112842.07324412477
116008.0704633382
119677.73705520778
123790.37993786372
128239.83612655997
132880.79213406536
137545.51412458555
142063.24111407393
146279.39634904737
150063.6184479689
153295.15814924057
104875.71160322058
105951.8210983038
107401.70622819876
109278.31245850545
111628.13246588943
114480.15822253842
117834.24282708105
121650.9898913044
125847.18850915477
130298.08478397544
134847.88971668645
139327.75634523065
143572.1138492766
147428.9896706557
150746.81626307804
105724.04886167635
106932.75313575633
108546.4551419108
110609.38609004341
113155.13618179999
116194.96572830617
119707.56849860979
123630.26073251604
127859.36045195689
132254.65745210584
136653.04014556017
140883.58597357548
144778.66393707128
148157.62828966053
106671.05989534549
108015.08004058244
109792.37134368268
112035.72043172184
114762.9957825518
117965.66963711861
121599.86844182677
125580.83442142072
129786.00540541766
134061.62375904742
138237.15574330237
142132.50246239323
145543.42238882493
107717.35454365642
109196.33573934039
111132.91908430621
113545.3456229195
116432.94533999177
119765.91446483419
123477.21422117006
127460.95503462163
131576.15301200692
135655.97831372148
139512.7496544815
142923.9761131436
108860.97235714368
110470.74080820601
112557.1278623006
115120.73941532342
118140.30480021682
121562.84076002281
125297.96535358191
129218.32647764662
133163.49964979396
136943.74005623139
140321.79230690747
110096.62466266082
111828.56880433446
114049.35625541116
116739.15144815254
119853.61712638357
123315.15542090611
127008.99118429021
130783.89477252883
134450.1918553218
137761.24192396653
111415.16850314829
113255.22541281575
115588.0901937897
118370.46008403924
121532.52722352363
124969.73872410637
128539.69346318895
132056.21421457297
135266.90926580277
112802.62630864597
114730.30039565374
117144.6396236016
119975.42574891669
123124.22915214972
126455.57766742825
129787.12376262901
132864.5372579064
114239.19456669535
116226.18101207368
118680.85271508052
121502.58620486013
124558.21526920996
127669.23354334089
130580.07742146627
115698.00757180025
117706.03539021843
120146.78815038093
122882.10442142583
125732.20697367225
128441.06958833049
117142.9706062107
119120.65043399764
121473.5530678205
124012.85477290412
126478.79662353545
118525.63057891393
120402.87070728453
122562.42815268226
124732.26397246173
119779.76731434325
121455.93528599635
123254.70772088108
120809.88565626112
122125.00100809922
121464.22057358503
SCALARS T float 1
LOOKUP_TABLE default
300.11904687408065
300.1187324121238
300.16842045860335
300.11667404985155
300.16826838383525
300.2410322008252
300.1131536000572
300.1653821567364
300.2411661200565
300.348283053724
300.10843887422226
300.1602712379782
300.23691899193807
300.34888041680756
300.5075554716575
300.10279979825714
300.1533911361976
300.2291833649475
300.3423298984221
300.5088663339137
300.74575913660186
300.09650241623194
300.14517673293943
300.21875521782084
300.3302029442434
300.4982928840169
300.74805392139996
301.10544496505463
300.0897971603381
300.13603977709397
300.2063724865225
300.313919692585
300.47867907488796
300.73017991848224
301.1086456671377
301.6559661195881
300.0829083008919
300.1263559986068
300.1927074329499
300.29476806692276
300.4526203697225
300.6975018766794
301.07687000008525
301.6580810926374
302.5157046990899
300.0760272769865
300.11645346312326
300.1783495875294
300.27387634192746
300.4224071724259
300.65489317457985
301.0207757516917
301.5982879794203
302.50675033649804
303.90153805268403
300.06931013048415
300.10660599084844
300.16379364636185
300.25218866769546
300.38995349874875
300.6064710975135
300.9497324316456
301.49898062141165
302.38686713712946
303.8402939840961
306.2552559208881
300.0628782187133
300.0970320786783
300.1494370973965
300.2304604355933
300.35677726956146
300.55547820072263
300.87114708369444
301.3784259320772
302.2055194210021
303.5834208260939
305.9769672139562
310.6149434093782
300.05682129563223
300.0878981359207
300.13558495973047
300.20926704341775
300.32402031324773
300.50431763652773
300.7904172929988
301.2497249578716
301.99800325345893
303.24289444542063
305.3924141609142
309.4420512285606
319.81724873105577
300.0512018129496
300.0793243627043
300.12245993995475
300.18902677707337
300.29250037954614
300.45467044125894
300.7112123369346
301.12146809116234
301.786292042495
302.8828151916089
304.7416963710393
308.06536827962185
314.8171141336214
327.82041821857325
300.04605977327515
300.0713919794174
300.11021514629175
300.17002608178547
300.2627671957961
300.40764072835634
300.63586564062666
300.99887666508107
301.5828541099174
302.53551326950713
304.1193175085252
306.8321679278881
311.724081557589
320.5581252031516
333.8360496345622
300.0414176314644
300.0641506918501
300.0989471906562
300.1524457534889
300.23516274374157
300.36389741162805
300.56573875288666
300.88484371776985
301.3940948971784
302.2155498693856
303.5574105107236
305.7838094680557
309.54435761435707
315.94074313382714
325.82569103221977
338.5762021390985
300.03728483668147
300.05762608105914
300.0887087041935
300.13638562930026
300.20987315505016
300.32379128982205
300.50151523641256
300.7807363059207
301.222768168356
301.9281993567059
303.0631665242434
304.9024221402603
307.89070493828086
312.763827350168
320.260023224939
330.45165220662784
342.396048892663
300.0336619600851
300.05182606284023
300.07951974481455
300.12188503116096
300.1869700939188
300.2874520223795
300.4434284685203
300.6869650990843
301.0695263236011
301.67404944865183
302.63409506655114
304.1622864616517
306.58402230464816
310.4255445332893
316.2717621625944
324.4020363546556
334.456813392944
345.5039534466516
300.0305444248851
300.0467467640313
300.07137748512287
300.1089412479187