# vtk DataFile Version 2.0
JuliaCFD
ASCII
DATASET UNSTRUCTURED_GRID

POINTS 1900 float
0.0 0.0 0.005
0.0 0.0416667 0.005
0.0 0.0833333 0.005
0.0 0.125 0.005
0.0 0.166667 0.005
0.0 0.208333 0.005
0.0 0.25 0.005
0.0 0.291667 0.005
0.0 0.333333 0.005
0.0 0.375 0.005
0.0 0.416667 0.005
0.0 0.458333 0.005
0.0 0.5 0.005
0.0 0.541667 0.005
0.0 0.583333 0.005
0.0 0.625 0.005
0.0 0.666667 0.005
0.0 0.708333 0.005
0.0 0.75 0.005
0.0 0.791667 0.005
0.0 0.833333 0.005
0.0 0.875 0.005
0.0 0.916667 0.005
0.0 0.958333 0.005
0.0 1.0 0.005
0.0409575 0.0 0.005
0.0409401 0.0416667 0.005
0.0409227 0.0833333 0.005
0.0409054 0.125 0.005
0.040888 0.166667 0.005
0.0408706 0.208333 0.005
0.0408532 0.25 0.005
0.0408359 0.291667 0.005
0.0408185 0.333333 0.005
0.0408011 0.375 0.005
0.0407838 0.416667 0.005
0.0407664 0.458333 0.005
0.040749 0.5 0.005
0.0407316 0.541667 0.005
0.0407143 0.583333 0.005
0.0406969 0.625 0.005
0.0406795 0.666667 0.005
0.0406621 0.708333 0.005
0.0406448 0.75 0.005
0.0406274 0.791667 0.005
0.04061 0.833333 0.005
0.0405927 0.875 0.005
0.0405753 0.916667 0.005
0.0405579 0.958333 0.005
0.0405405 1.0 0.005
0.0819149 0.0 0.005
0.0818802 0.0416667 0.005
0.0818455 0.0833333 0.005
0.0818107 0.125 0.005
0.081776 0.166667 0.005
0.0817412 0.208333 0.005
0.0817065 0.25 0.005
0.0816717 0.291667 0.005
0.081637 0.333333 0.005
0.0816022 0.375 0.005
0.0815675 0.416667 0.005
0.0815328 0.458333 0.005
0.081498 0.5 0.005
0.0814633 0.541667 0.005
0.0814285 0.583333 0.005
0.0813938 0.625 0.005
0.081359 0.666667 0.005
0.0813243 0.708333 0.005
0.0812895 0.75 0.005
0.0812548 0.791667 0.005
0.0812201 0.833333 0.005
0.0811853 0.875 0.005
0.0811506 0.916667 0.005
0.0811158 0.958333 0.005
0.0810811 1.0 0.005
0.122872 0.0 0.005
0.12282 0.0416667 0.005
0.122768 0.0833333 0.005
0.122716 0.125 0.005
0.122664 0.166667 0.005
0.122612 0.208333 0.005
0.12256 0.25 0.005
0.122508 0.291667 0.005
0.122455 0.333333 0.005
0.122403 0.375 0.005
0.122351 0.416667 0.005
0.122299 0.458333 0.005
0.122247 0.5 0.005
0.122195 0.541667 0.005
0.122143 0.583333 0.005
0.122091 0.625 0.005
0.122039 0.666667 0.005
0.121986 0.708333 0.005
0.121934 0.75 0.005
0.121882 0.791667 0.005
0.12183 0.833333 0.005
0.121778 0.875 0.005
0.121726 0.916667 0.005
0.121674 0.958333 0.005
0.121622 1.0 0.005
0.16383 0.0 0.005
0.16376 0.0416667 0.005
0.163691 0.0833333 0.005
0.163621 0.125 0.005
0.163552 0.166667 0.005
0.163482 0.208333 0.005
0.163413 0.25 0.005
0.163343 0.291667 0.005
0.163274 0.333333 0.005
0.163204 0.375 0.005
0.163135 0.416667 0.005
0.163066 0.458333 0.005
0.162996 0.5 0.005
0.162927 0.541667 0.005
0.162857 0.583333 0.005
0.162788 0.625 0.005
0.162718 0.666667 0.005
0.162649 0.708333 0.005
0.162579 0.75 0.005
0.16251 0.791667 0.005
0.16244 0.833333 0.005
0.162371 0.875 0.005
0.162301 0.916667 0.005
0.162232 0.958333 0.005
0.162162 1.0 0.005
0.204787 0.0 0.005
0.2047 0.0416667 0.005
0.204614 0.0833333 0.005
0.204527 0.125 0.005
0.20444 0.166667 0.005
0.204353 0.208333 0.005
0.204266 0.25 0.005
0.204179 0.291667 0.005
0.204092 0.333333 0.005
0.204006 0.375 0.005
0.203919 0.416667 0.005
0.203832 0.458333 0.005
0.203745 0.5 0.005
0.203658 0.541667 0.005
0.203571 0.583333 0.005
0.203484 0.625 0.005
0.203398 0.666667 0.005
0.203311 0.708333 0.005
0.203224 0.75 0.005
0.203137 0.791667 0.005
0.20305 0.833333 0.005
0.202963 0.875 0.005
0.202876 0.916667 0.005
0.20279 0.958333 0.005
0.202703 1.0 0.005
0.245745 0.0 0.005
0.245641 0.0416667 0.005
0.245536 0.0833333 0.005
0.245432 0.125 0.005
0.245328 0.166667 0.005
0.245224 0.208333 0.005
0.245119 0.25 0.005
0.245015 0.291667 0.005
0.244911 0.333333 0.005
0.244807 0.375 0.005
0.244703 0.416667 0.005
0.244598 0.458333 0.005
0.244494 0.5 0.005
0.24439 0.541667 0.005
0.244286 0.583333 0.005
0.244181 0.625 0.005
0.244077 0.666667 0.005
0.243973 0.708333 0.005
0.243869 0.75 0.005
0.243764 0.791667 0.005
0.24366 0.833333 0.005
0.243556 0.875 0.005
0.243452 0.916667 0.005
0.243347 0.958333 0.005
0.243243 1.0 0.005
0.286702 0.0 0.005
0.286581 0.0416667 0.005
0.286459 0.0833333 0.005
0.286337 0.125 0.005
0.286216 0.166667 0.005
0.286094 0.208333 0.005
0.285973 0.25 0.005
0.285851 0.291667 0.005
0.285729 0.333333 0.005
0.285608 0.375 0.005
0.285486 0.416667 0.005
0.285365 0.458333 0.005
0.285243 0.5 0.005
0.285121 0.541667 0.005
0.285 0.583333 0.005
0.284878 0.625 0.005
0.284757 0.666667 0.005
0.284635 0.708333 0.005
0.284513 0.75 0.005
0.284392 0.791667 0.005
0.28427 0.833333 0.005
0.284149 0.875 0.005
0.284027 0.916667 0.005
0.283905 0.958333 0.005
0.283784 1.0 0.005
0.32766 0.0 0.005
0.327521 0.0416667 0.005
0.327382 0.0833333 0.005
0.327243 0.125 0.005
0.327104 0.166667 0.005
0.326965 0.208333 0.005
0.326826 0.25 0.005
0.326687 0.291667 0.005
0.326548 0.333333 0.005
0.326409 0.375 0.005
0.32627 0.416667 0.005
0.326131 0.458333 0.005
0.325992 0.5 0.005
0.325853 0.541667 0.005
0.325714 0.583333 0.005
0.325575 0.625 0.005
0.325436 0.666667 0.005
0.325297 0.708333 0.005
0.325158 0.75 0.005
0.325019 0.791667 0.005
0.32488 0.833333 0.005
0.324741 0.875 0.005
0.324602 0.916667 0.005
0.324463 0.958333 0.005
0.324324 1.0 0.005
0.368617 0.0 0.005
0.368461 0.0416667 0.005
0.368305 0.0833333 0.005
0.368148 0.125 0.005
0.367992 0.166667 0.005
0.367835 0.208333 0.005
0.367679 0.25 0.005
0.367523 0.291667 0.005
0.367366 0.333333 0.005
0.36721 0.375 0.005
0.367054 0.416667 0.005
0.366897 0.458333 0.005
0.366741 0.5 0.005
0.366585 0.541667 0.005
0.366428 0.583333 0.005
0.366272 0.625 0.005
0.366116 0.666667 0.005
0.365959 0.708333 0.005
0.365803 0.75 0.005
0.365647 0.791667 0.005
0.36549 0.833333 0.005
0.365334 0.875 0.005
0.365178 0.916667 0.005
0.365021 0.958333 0.005
0.364865 1.0 0.005
0.409575 0.0 0.005
0.409401 0.0416667 0.005
0.409227 0.0833333 0.005
0.409054 0.125 0.005
0.40888 0.166667 0.005
0.408706 0.208333 0.005
0.408532 0.25 0.005
0.408359 0.291667 0.005
0.408185 0.333333 0.005
0.408011 0.375 0.005
0.407838 0.416667 0.005
0.407664 0.458333 0.005
0.40749 0.5 0.005
0.407316 0.541667 0.005
0.407143 0.583333 0.005
0.406969 0.625 0.005
0.406795 0.666667 0.005
0.406621 0.708333 0.005
0.406448 0.75 0.005
0.406274 0.791667 0.005
0.4061 0.833333 0.005
0.405927 0.875 0.005
0.405753 0.916667 0.005
0.405579 0.958333 0.005
0.405405 1.0 0.005
0.450532 0.0 0.005
0.450341 0.0416667 0.005
0.45015 0.0833333 0.005
0.449959 0.125 0.005
0.449768 0.166667 0.005
0.449577 0.208333 0.005
0.449386 0.25 0.005
0.449195 0.291667 0.005
0.449003 0.333333 0.005
0.448812 0.375 0.005
0.448621 0.416667 0.005
0.44843 0.458333 0.005
0.448239 0.5 0.005
0.448048 0.541667 0.005
0.447857 0.583333 0.005
0.447666 0.625 0.005
0.447475 0.666667 0.005
0.447284 0.708333 0.005
0.447093 0.75 0.005
0.446901 0.791667 0.005
0.44671 0.833333 0.005
0.446519 0.875 0.005
0.446328 0.916667 0.005
0.446137 0.958333 0.005
0.445946 1.0 0.005
0.49149 0.0 0.005
0.491281 0.0416667 0.005
0.491073 0.0833333 0.005
0.490864 0.125 0.005
0.490656 0.166667 0.005
0.490447 0.208333 0.005
0.490239 0.25 0.005
0.49003 0.291667 0.005
0.489822 0.333333 0.005
0.489613 0.375 0.005
0.489405 0.416667 0.005
0.489197 0.458333 0.005
0.488988 0.5 0.005
0.48878 0.541667 0.005
0.488571 0.583333 0.005
0.488363 0.625 0.005
0.488154 0.666667 0.005
0.487946 0.708333 0.005
0.487737 0.75 0.005
0.487529 0.791667 0.005
0.48732 0.833333 0.005
0.487112 0.875 0.005
0.486903 0.916667 0.005
0.486695 0.958333 0.005
0.486486 1.0 0.005
0.531954 0.00563435 0.005
0.531749 0.0470663 0.005
0.531544 0.0884982 0.005
0.531338 0.12993 0.005
0.531133 0.171362 0.005
0.530928 0.212794 0.005
0.530722 0.254226 0.005
0.530517 0.295658 0.005
0.530312 0.33709 0.005
0.530107 0.378521 0.005
0.529901 0.419953 0.005
0.529696 0.461385 0.005
0.529491 0.502817 0.005
0.529285 0.544249 0.005
0.52908 0.585681 0.005
0.528875 0.627113 0.005
0.528669 0.668545 0.005
0.528464 0.709977 0.005
0.528259 0.751409 0.005
0.528054 0.79284 0.005
0.527848 0.834272 0.005
0.527643 0.875704 0.005
0.527438 0.917136 0.005
0.527232 0.958568 0.005
0.527027 1.0 0.005
0.572289 0.0127465 0.005
0.572093 0.0538821 0.005
0.571896 0.0950177 0.005
0.571699 0.136153 0.005
0.571502 0.177289 0.005
0.571306 0.218424 0.005
0.571109 0.25956 0.005
0.570912 0.300695 0.005
0.570715 0.341831 0.005
0.570519 0.382967 0.005
0.570322 0.424102 0.005
0.570125 0.465238 0.005
0.569928 0.506373 0.005
0.569732 0.547509 0.005
0.569535 0.588644 0.005
0.569338 0.62978 0.005
0.569142 0.670916 0.005
0.568945 0.712051 0.005
0.568748 0.753187 0.005
0.568551 0.794322 0.005
0.568355 0.835458 0.005
0.568158 0.876593 0.005
0.567961 0.917729 0.005
0.567764 0.958864 0.005
0.567568 1.0 0.005
0.612625 0.0198587 0.005
0.612436 0.0606979 0.005
0.612248 0.101537 0.005
0.61206 0.142376 0.005
0.611872 0.183216 0.005
0.611684 0.224055 0.005
0.611496 0.264894 0.005
0.611307 0.305733 0.005
0.611119 0.346572 0.005
0.610931 0.387412 0.005
0.610743 0.428251 0.005
0.610555 0.46909 0.005
0.610366 0.509929 0.005
0.610178 0.550769 0.005
0.60999 0.591608 0.005
0.609802 0.632447 0.005
0.609614 0.673286 0.005
0.609425 0.714125 0.005
0.609237 0.754965 0.005
0.609049 0.795804 0.005
0.608861 0.836643 0.005
0.608673 0.877482 0.005
0.608484 0.918322 0.005
0.608296 0.959161 0.005
0.608108 1.0 0.005
0.65296 0.0269708 0.005
0.65278 0.0675137 0.005
0.652601 0.108057 0.005
0.652421 0.148599 0.005
0.652241 0.189142 0.005
0.652062 0.229685 0.005
0.651882 0.270228 0.005
0.651702 0.310771 0.005
0.651523 0.351314 0.005
0.651343 0.391857 0.005
0.651164 0.4324 0.005
0.650984 0.472943 0.005
0.650804 0.513485 0.005
0.650625 0.554028 0.005
0.650445 0.594571 0.005
0.650265 0.635114 0.005
0.650086 0.675657 0.005
0.649906 0.7162 0.005
0.649726 0.756743 0.005
0.649547 0.797286 0.005
0.649367 0.837828 0.005
0.649188 0.878371 0.005
0.649008 0.918914 0.005
0.648828 0.959457 0.005
0.648649 1.0 0.005
0.693295 0.034083 0.005
0.693124 0.0743295 0.005
0.692953 0.114576 0.005
0.692782 0.154823 0.005
0.692611 0.195069 0.005
0.69244 0.235316 0.005
0.692269 0.275562 0.005
0.692098 0.315809 0.005
0.691926 0.356055 0.005
0.691755 0.396302 0.005
0.691584 0.436548 0.005
[...]
CELL_DATA 888
SCALARS P float 1
LOOKUP_TABLE default
100146.69301824582
100146.34446114062
100206.61728481963
100143.94255630448
100206.48967514338
100293.72925197659
100139.81824520313
100203.15507690838
100294.00225380699
100420.75482376033
100134.2836949103
100197.21040394035
100289.16400080736
100421.71033644071
100606.6827299665
100127.65278200284
100189.18434991078
100280.25493575945
100414.38248049039
100608.77520076855
100880.21503933422
100120.2351057614
100179.5797810438
100268.19274336314
100400.58921255212
100597.20460292604
100884.12156475318
101285.64277905693
100112.32284629512
100168.8730530825
100253.82446236175
100381.9533013702
100575.22812388292
100865.04732417827
101292.09399900136
101893.69124546186
100104.17865039827
100157.50018711963
100237.92227530836
100359.94002689573
100545.77993949648
100829.06161207697
101259.06730705495
101902.26823224874
102824.12520519503
100096.02780476668
100145.84370768024
100221.16601441163
100335.8348555697
100511.43987123655
100781.6082750702
101198.4552019433
101841.59108267295
102827.65905814864
104300.27824436293
100088.05506136446
100134.2248602302
100204.12969491658
100310.719207529
100474.36971343601
100727.27602589932
101120.59702342469
101736.31133607289
102707.90230403788
104261.03386279133
106803.96684205401
100080.40522969436
100122.9019669831
100187.2782939693
100285.46546502231
100436.29653100487
100669.69582696016
101033.66424757768
101606.36969465738
102518.76023117108
104004.53179096464
106550.10604609278
111593.49152083689
100073.18653267002
100112.07371137042
100170.97231176945
100260.74548684114
100398.53414097475
100611.58649210517
100943.65603955214
101466.09876090704
102298.48885659962
103652.6039332817
105953.52408741537
110332.75355007497
122757.42464389947
100066.47541902628
100101.88551372013
100155.47851149323
100237.05475978761
100362.0380883968
100554.88016130633
100854.71099124792
101325.00216718015
102071.01270995243
103274.63995881693
105278.5531300712
108857.86317695996
116501.8909600857
133111.32838826653
100060.32206618988
100092.43756145384
100140.9837421146
100214.73935705188
100327.4646991861
100500.87538941506
100769.52358092231
101188.98420397346
101850.13476011004
102905.81886704927
104627.40765389813
107551.15395858827
112939.09732340199
123395.06978503981
141235.9368975324
100054.75598896401
100083.7932084868
100127.60941451367
100194.02436030825
100295.23572247758
100450.38724655185
100689.72685495243
101061.4465139186
101643.21072638023
102562.41743641316
104034.62871620366
106445.56652564254
110541.14447170607
117788.81572205212
129994.4934206125
147836.12618324856
100049.79127408456
100075.98738888561
100115.42551727328
100175.0410829195
100265.5945507763
100403.87202623601
100616.20210815595
100944.12846748403
101453.68306722799
102250.87430983958
103508.50398231865
105514.99814741488
108763.46641305058
114160.61870338547
122928.2192582187
136011.8863783858
153288.2446693366
100045.4313685482
100069.03402616738
100104.46354349227
100157.8498409238
100238.65151217408
100361.53201827189
100549.32121996551
100837.70578119911
101282.70022625139
101972.61819099357
103047.36166705465
104729.53172009485
107371.50700375419
111585.121230396
118204.10554503363
128031.00320961792
141398.04602085604
157822.2187506032
100041.67343529576
100062.93283507429
100094.72757878691
100142.46086867402
100214.4246298344
100323.39372387096
100489.11557987284
100742.18637913639
101130.0982207239
101726.59064071397
102645.96639513918
104064.16587747636
106246.66795223189
109636.37786062341
114829.48618717183
122453.04704727921
132921.50898801518
146176.117448034
161596.77363738237
100038.51221752015
100057.67536424639
100086.20380158948
100128.8500899313
100192.86853084445
100289.36893433395
100435.40517918988
100657.1880669753
100994.9960280417
101510.57972889973
102298.0530222695
103498.95666323985
105320.55862906012
108099.97728371115
112285.40864832267
118368.96994847857
126740.98530075072
137509.3744743696
150389.05189158005
164731.51366053926
100035.94389629528
100053.25044125644
100078.86924203955
100116.97363309935
100173.90046703152
100259.29899974732
100387.8853190765
100582.10996465024
100876.16426003532
101321.91384636298
101997.3555110364
103017.87645546868
104549.23893564777
106856.99688411465
110291.8674824363
115250.1783798708
122080.79845791322
130950.9885076398
141752.78877865398
154084.30423668574
167321.42815827855
100033.970472298
100049.64970065396
100072.6991374782
100106.77846077809
100157.41693903213
100232.98864420207
100346.18791789038
100516.24800450026
100772.23431448264
101157.83158107365
101738.04573069129
102607.88913928482
103902.20005388645
105834.88547920252
108688.34075338294
112789.76887674998
118449.78386664242
125859.96124264745
135004.29639845752
145636.85244336253
157308.6864716766
169445.23366036726
100032.60565051775
100046.87429532553
100067.67492171223
100098.21376058851
100143.31127451577
100210.23093968992
100309.9231205307
100458.87442758477
100681.82675370986
101015.6799107279
101514.87353173568
102258.2553910054
103356.84478943232
104985.56366705468
107376.16913919178
110803.44045730159
115545.0768657027
121803.31374283251
129622.29927979558
138850.19728662987
149162.19957832212
160107.0111405441
171170.15490474447
100031.88481548712
100044.94459953644
100063.79428364403
100091.24141251869
100131.4861172318
100190.82683770831
100278.71019753489
100409.27969219131
100603.63022163631
100893.01250646645
101323.20626360616
101960.05861433504
102895.79849286492
104275.00593172706
106290.11935108356
109174.43984024136
113176.39108186009
118500.96403590064
125236.30589695966
133302.82663086217
142457.52035000577
152339.43307580723
162521.84432942574
172554.7915920809
100043.9171365204
100061.08604994492
100085.85072389852
100121.8693497683
100174.60229359279
100252.20099750957
100366.80922845785
100536.44025474534
100787.62526907536
101159.00344063576
101705.85942347052
102505.34460844261
103677.8246715413
105384.42375133322
107824.33418323267
111219.17417659659
115770.67572516529
121598.58379049556
128684.19694143414
136853.06008156794
145808.58244292988
155184.13036373677
164592.96978422767
173647.74727487323
100059.6362857669
100082.08000619995
100114.43308487568
100161.42813422426
100230.10064976756
100330.88486841813
100479.18535124899
100697.57976226654
101018.78792942825
101489.42699789807
102174.40555991279
103174.4858744994
104625.31130741362
106697.43221015455
109587.69549672618
113489.56375905768
118543.44348680048
124781.14112721718
132092.6560113779
140237.7701670764
148895.88509703687
157715.6277350195
166356.9222908759
174494.03441412895
100080.05455537364
100109.22509839825
100151.24615874107
100212.18918575716
100301.02547002099
100430.94629438678
100621.20440823615
100899.58842992666
101305.55858986708
101893.9709838637
102749.55637654883
103986.93486323068
105752.35585629272
108219.80357938644
111570.92618864076
115957.01175959386
121449.13388379579
127996.61014320802
135417.7355332411
143432.73557275193
151719.13794525844
159954.62530647079
167848.51692608977
175127.86199336356
100106.42143863946
100144.11138047288
100198.35797474484
100276.8755601797
100390.971545121
100557.09300462718
100798.90148224862
101149.90868763365
101656.6596062655
102390.65709221615
103449.04159882473
104957.33220628327
107068.56137637167
109950.34873012912
113757.00112117927
118587.48577531973
124442.16314415073
131198.69196385692
138624.48822214862
146422.4205731904
154283.4439683969
161923.1048618747
169096.34781208384
175583.353628996
100140.26488011703
100188.6647556549
100258.24667785496
100358.70633932293
100504.11296519439
100714.65750918644
101018.88212538941
101456.41339016019
102087.76409164694
102995.47616527496
104287.3268283125
106097.33855714336
108578.15930915448
111881.06932204188
116122.62403129357
121344.05082034852
127478.92658994716
134347.67415306863
141686.31410110393
149198.10156287192
156597.61391687687
163642.03720344623
170130.28679910707
175885.6165389347
100183.43376539066
100245.19265383205
100333.84527812534
100461.43282697455
100645.21175814516
100909.54755532104
101288.27162480395
101832.74380446546
102613.22631068435
103722.2906179644
105276.96923742816
107414.7173797609
110279.77646462776
113997.67927511691
118639.82480022553
124188.64448311362
130519.21053574224
137410.16781230498
144583.57608909198
151755.54087572894
158672.46966560755
165131.65653366214
170973.1110359252
176061.72688759028
100238.1424696784
100316.42724313746
100428.58052658809
100589.3591593936
100819.5991441915
101148.2436971375
101618.98713439873
102291.7436236086
103246.04736917716
104583.84153985871
106427.86428451604
108912.81005984616
112166.47314111832
116280.64159875808
121277.5071406378
127083.79732186705
133526.79770091365
140358.84698436386
147302.51395892748
154095.67964303846
160520.23472055243
166411.89443010843
171648.5578238226
176126.88219936122
100307.01348759476
100405.56685101902
100546.4032945542
100747.34801071999
101033.20337479105
101441.19601476363
102022.4970142692
102845.46652807297
103998.73038171581
105591.1553838308
107746.54853241511
110590.23292893243
114225.980950573
118706.14163682987
124002.89237060853
129993.58343764619
136469.91534663472
143172.3166596109
149834.2829134367
156221.5672476489
162153.35071564768
167501.29746733783
172175.31976362917
176104.78810937778
100393.12052016254
100516.3135684747
100691.81365402137
100940.87182809807
101295.246686692
101798.67370989601
102509.91599315847
103505.89697720185
104882.70856579248
106752.78786508316
109235.73111789359
112440.77266133417
116441.39814036673
121247.22222711204
126782.80828574978
132884.74542313346
139321.3913292084
145832.8793787949
152173.2417082916
158139.29924088833
163585.25855933403
168416.63402388946
172572.01954584563
176007.0664225163
100500.02852824339
100652.90919897016
100869.92256279402
101178.1560870127
101614.97518569198
102230.88683017356
103092.55799282597
104284.46643814025
105907.76365749232
108074.35705250554
110894.00042292314
114453.64757156301
118791.83781150125
123874.8761644821
129584.69562993769
135726.47198965173
142058.28020128707
148328.88195927587
154317.6239334195
159854.93190737933
164828.17311447632
169172.797872486
172854.3418893647
175853.2492285242
100631.83791907881
100820.20814748315
101088.17447933389
101467.57866377737
102001.76321067936
102748.42143256016
103781.54359739595
105191.49328074668
107081.43078257388
109558.0862410175
112715.67994588152
116613.7394734633
121253.27108637367
126559.00670161488
132377.3320532336
138492.33348771732
144660.82716679623
150649.80034975766
156266.82388892162
161375.0125219208
165893.740253658
169784.77226152117
173038.7179967572
175662.8098766189
100793.26097382148
101025.0869241783
101354.24676177079
101817.78096839778
102465.48261311387
103361.94208517805
104587.38062838078
106235.7581561444
108408.54304996815
111202.39681571326
114690.89203978787
118902.22201613862
123799.21620442471
129269.30610367708
135130.73224503838
141157.65049408408
147113.88071239358
152789.0329668717
158021.78600790416
162706.78457282277
166792.1220533767
170265.33151304146
173141.4860793806
175471.66321646678
100990.86226420582
101274.71872614814
101676.17453195555
102237.97086457543
103016.24784435044
104081.81846093817
105519.46694158849
107423.90920430979
109890.77316179375
113001.89440654898
116805.66760313306
121296.95727785368
126401.75313577375
131975.48798189676
137817.76797698377
143700.5790214101
149402.9837014218
154741.1350968948
159583.64643471525
163855.93084502258
167532.77078469424
170626.46696123097
173184.4691114495
175324.71593025103
101231.51901870577
101576.68174781988
102062.59769973363
102737.72289173944
103664.15202657993
104917.72591602747
106585.63018014377
108759.98820350492
111526.30765493252
114947.07392078613
119042.36918165129
123772.77873685744
129031.40685816895
134648.35074147617
140412.5396475242
146102.31119807353
151517.0192518092
156501.04654409806
160952.80380649125
164826.3662491625
168121.70533126223
170877.40416119376
173189.64103348018
101522.55413174999
101939.16608267954
102522.58382958893
103326.73273933529
104418.85734591393
105878.19818747837
107791.66101934487
110245.03358930047
113309.55730912909
117024.5492544003
121379.85894757831
126303.28600883452
131658.78682576361
137259.26617459243
142891.00997221758
148345.02139385245
153444.55422465526
158062.52095177234
162127.04284844166
165617.8061905107
168557.65276804764
171017.96310866403
101871.89509735188
102370.84506863165
103065.43332156955
104014.51465207872
105289.21839917886
106970.12170583806
109140.71409027821
111876.69975349621
115231.07870652869
119217.17458703642
123794.04562857935
128859.23672126957
134253.6710919228
139780.48604636572
145229.91435948425
150411.20487426833
155173.51968233046
159418.2145296471
163099.0819552741
166218.504865569
168818.47226340775
102287.96408327666
102880.67198887824
103700.40932856068
104810.00515979533
106282.85130094265
108198.25283421869
110632.98318349698
113648.84365168055
117277.11671048342
121503.68339757036
126257.52120625878
131409.9598814541
136785.56400230995
142183.8414467477
147405.84842051755
152282.47196359953
156688.78753769214
160552.15760714593
163847.59592119508
166586.2070308439
102779.51243650245
103477.6543245079
104436.3923632665
105721.17551498636
107405.59352633446
109564.76295862756
112265.22797761927
115551.44899280462
119430.44468055747
123859.72228793503
128740.98530471101
133923.93801066148
139223.09231878072
144440.7203747506
149394.10251889972
153936.1432104789
157967.2294603937
161432.63021936995
164310.4904703203
103355.36648323467
104170.55558751913
105281.50074063403
106754.5840272941
108661.01410396336
111068.65448991978
114030.34176151316
117569.92996517496
121669.13655287339
126257.47931822659
131212.01124601768
136367.23983638582
141533.13890537128
146520.6779641147
151165.26759446046
155341.33852491208
158965.71530315743
161980.53183548935
104024.17586529677
104967.51188339695
106242.68045436674
107914.78513880022
110049.92591469892
112705.35792125991
115916.87649383258
119685.69085877902
123966.9594218884
128664.39339321933
133635.3964100807
138703.13765076332
143679.4091327085
148387.37086147198
152680.0320612589
156444.76211946423
159589.19540334915
104794.05844545676
105875.62445509777
107325.12147792264
109203.8261660886
111569.58700251163
114465.94250265832
117908.86220430769
121875.0171825617
126293.53663397428
131045.53703617216
135971.71300360435
140890.60865280736
145619.24747506334
149993.13990763866
153873.87185129029
157134.26997188642
105672.16033261217
106900.48508174071
108531.78637032723
110620.7071540965
113213.69930762329
116337.16244153246
119985.14876590628
124109.02463478956
128613.32818432746
133359.0876541967
138175.8222741885
142880.9865123875
147297.34637684937
151263.67471235408
154620.83712979828
106664.21187580824
108045.57877440355
109862.80071352374
112160.62411760536
114970.91572934187
118300.19984984757
122118.98548252761
126353.0293470395
130884.54366691392
135557.98117313738
140195.21195188616
144611.95384381112
148629.7846773887
152059.12478462505
107773.98615859963
109311.72030683995
111314.51637406845
113814.12003978061
116824.62872453727
120330.36893706095
124276.79854575131
128565.42610314678
133058.03606697763
137584.80853477566
141960.26489833512
145991.73203309163
149464.50181607655
109002.60445913584
110696.2821881862
112879.31612270363
115566.95422894784
118752.36389408469
122396.01919302491
126417.76054535694
130696.02915444283
135073.0302840805
139365.58874349343
143371.5766880434
146856.36137333335
110347.98602469488
112192.4797128191
114544.06534584789
117398.01038608886
120724.24572067514
124457.40716626168
128491.68349943165
132682.46859719357
136851.8083301414
140793.72875268298
144256.97039425626
111803.87374807871
113788.51574807114
116289.66731508316
119279.47928815786
122701.99564896559
126464.62216749988
130435.1286863394
134443.8500656655
138283.2463835562
141690.68932951862
113359.10634625785
115466.4382810575
118089.65190807737
121174.48363225142
124636.6206411161
128354.06581530599
132165.29562106822
135864.8585367142
139182.354312997
114996.40747386953
117200.97549404246
119908.66665072313
123035.16335279733
126464.7093243088
130042.21655465265
133564.82701610378
136758.25809065692
116691.16442801952
118957.927895524
121699.97967718093
124799.40870925003
128103.02155376054
131410.76034494085
134445.21546729453
118409.98416835736
120691.95069351095
123402.9931534935
126384.46612289411
129434.01721121413
132271.99565023932
120108.30815704113
122343.17846294281
124935.79378531783
127673.6343630698
130271.54961660647
121727.0511682594
123831.40505910077
126183.88150214643
128485.10816927816
123186.9356235516
125043.95495152863
126968.91783823218
124376.49879777132
125806.11051313068
125124.00289392973
SCALARS T float 1
LOOKUP_TABLE default
300.1266176616781
300.1262970837232
300.1788232250009
300.124197935862
300.17866856616064
300.25514355668884
300.1206067239156
300.17572746836254
300.2552812116122
300.367250052348
300.1157951644451
300.1705177748619
300.2509595656898
300.3678609888272
300.53288361309734
300.11003694007405
300.16350155223336
300.24308488868485
300.36120729047076
300.5342224832003
300.77942986887473
300.1036018787263
300.15511959866916
300.2324639036078
300.3488820984282
300.52350235493407
300.7817729707849
301.1500701141459
300.09674421410165
300.1457893561117
300.2198439955592
300.332322930239
300.503601361442
300.7636838683244
301.1533459474742
301.71498240909546
300.0896919603203
300.13589210122797
300.20590621447474
300.3128328841218
300.4771431600411
300.7305820596198
301.12124368776983
301.71720338078035
302.5935969002144
300.0826401595143
300.12576125114043
300.1912483813708
300.2915539907226
300.4464427193486
300.68738742018974
301.06451191678036
301.6568961267421
302.584769930539
304.00403291883447
300.07574825010266
300.1156756979625
300.1763729584336
300.269442944914
300.4134357386834
300.63825732977944
300.992598393026
301.5566122437874
302.4640499506001
303.94288360988867
306.3893059334943
300.06914073488076
300.105858661199
300.16168462179854
300.24726653248047
300.3796592549015
300.5864686245998
300.9129759057371
301.4347524927079
302.2811878929384
303.6846199218489
306.1109142442835
310.7879900608087
300.06291024094725
300.0964808833793
300.1474949503815
300.2256103513405
300.3462717648974
300.5344534437912
300.8310959319021
301.3045250766186
302.0717082661375
303.34174749027966
305.524078235563
309.6145043543235
320.034522666457
300.05712181600006
300.08766649074295
300.1340325636583
300.20490175602697
300.3141054760558
300.4839170870559
300.75067109500054
301.1746032283722
301.85775400320296
302.9787407265772
304.8698223175887
308.2343833925834
315.033758893514
328.08341698531785
300.0518177897915
300.0795002276933
300.12145585169515
300.1854351828649
300.2837225219362
300.43598382012675
300.67406941427885
301.05027138144715
301.6519157870849
302.6281819306209
304.2432028949009
306.99621627237633
311.9366858577014
320.82258343130206
334.1466858596108
300.04702269364134
300.0720349386588
300.10986610711905
300.16739841394156
300.2554755097817
300.39133928178086
300.60267997428406
300.93447039790834
301.4606868123293
302.30480148164855
303.6766924137551
305.9420573663611
309.750877939312
316.2022155760177
326.1411485078414
338.9373565858034
300.04274782662065
300.06529899152144
300.0993200868304
300.15089737941514
300.22955965919977
300.3503481109267
300.5372082333762
300.8286036028748
301.2868839287315
302.0139886512586
303.17769861463256
305.0544542489051
308.0899707225879
313.0191885089014
320.5749663299314
330.82157864690015
342.8111429846617
300.03899541276166
300.059302770885
300.0898414776775
300.1359766850827
300.20605435740396
300.3131514533638
300.4779051059249
300.7331093789877
301.1312053122723
301.7564102614478
302.7438733767591
304.307955878152
306.7754202907174
310.67283805263884
316.5818633975091
324.7748223781945
334.8850461260821
345.9767966796085
300.0357623666583
300.0540445997233
300.0814306440267
300.1226382182642
300.1849599263714