# vtk DataFile Version 2.0
JuliaCFD
ASCII
DATASET UNSTRUCTURED_GRID

POINTS 1900 float
0.0 0.0 0.005
0.0 0.0416667 0.005
0.0 0.0833333 0.005
0.0 0.125 0.005
0.0 0.166667 0.005
0.0 0.208333 0.005
0.0 0.25 0.005
0.0 0.291667 0.005
0.0 0.333333 0.005
0.0 0.375 0.005
0.0 0.416667 0.005
0.0 0.458333 0.005
0.0 0.5 0.005
0.0 0.541667 0.005
0.0 0.583333 0.005
0.0 0.625 0.005
0.0 0.666667 0.005
0.0 0.708333 0.005
0.0 0.75 0.005
0.0 0.791667 0.005
0.0 0.833333 0.005
0.0 0.875 0.005
0.0 0.916667 0.005
0.0 0.958333 0.005
0.0 1.0 0.005
0.0409575 0.0 0.005
0.0409401 0.0416667 0.005
0.0409227 0.0833333 0.005
0.0409054 0.125 0.005
0.040888 0.166667 0.005
0.0408706 0.208333 0.005
0.0408532 0.25 0.005
0.0408359 0.291667 0.005
0.0408185 0.333333 0.005
0.0408011 0.375 0.005
0.0407838 0.416667 0.005
0.0407664 0.458333 0.005
0.040749 0.5 0.005
0.0407316 0.541667 0.005
0.0407143 0.583333 0.005
0.0406969 0.625 0.005
0.0406795 0.666667 0.005
0.0406621 0.708333 0.005
0.0406448 0.75 0.005
0.0406274 0.791667 0.005
0.04061 0.833333 0.005
0.0405927 0.875 0.005
0.0405753 0.916667 0.005
0.0405579 0.958333 0.005
0.0405405 1.0 0.005
0.0819149 0.0 0.005
0.0818802 0.0416667 0.005
0.0818455 0.0833333 0.005
0.0818107 0.125 0.005
0.081776 0.166667 0.005
0.0817412 0.208333 0.005
0.0817065 0.25 0.005
0.0816717 0.291667 0.005
0.081637 0.333333 0.005
0.0816022 0.375 0.005
0.0815675 0.416667 0.005
0.0815328 0.458333 0.005
0.081498 0.5 0.005
0.0814633 0.541667 0.005
0.0814285 0.583333 0.005
0.0813938 0.625 0.005
0.081359 0.666667 0.005
0.0813243 0.708333 0.005
0.0812895 0.75 0.005
0.0812548 0.791667 0.005
0.0812201 0.833333 0.005
0.0811853 0.875 0.005
0.0811506 0.916667 0.005
0.0811158 0.958333 0.005
0.0810811 1.0 0.005
0.122872 0.0 0.005
0.12282 0.0416667 0.005
0.122768 0.0833333 0.005
0.122716 0.125 0.005
0.122664 0.166667 0.005
0.122612 0.208333 0.005
0.12256 0.25 0.005
0.122508 0.291667 0.005
0.122455 0.333333 0.005
0.122403 0.375 0.005
0.122351 0.416667 0.005
0.122299 0.458333 0.005
0.122247 0.5 0.005
0.122195 0.541667 0.005
0.122143 0.583333 0.005
0.122091 0.625 0.005
0.122039 0.666667 0.005
0.121986 0.708333 0.005
0.121934 0.75 0.005
0.121882 0.791667 0.005
0.12183 0.833333 0.005
0.121778 0.875 0.005
0.121726 0.916667 0.005
0.121674 0.958333 0.005
0.121622 1.0 0.005
0.16383 0.0 0.005
0.16376 0.0416667 0.005
0.163691 0.0833333 0.005
0.163621 0.125 0.005
0.163552 0.166667 0.005
0.163482 0.208333 0.005
0.163413 0.25 0.005
0.163343 0.291667 0.005
0.163274 0.333333 0.005
0.163204 0.375 0.005
0.163135 0.416667 0.005
0.163066 0.458333 0.005
0.162996 0.5 0.005
0.162927 0.541667 0.005
0.162857 0.583333 0.005
0.162788 0.625 0.005
0.162718 0.666667 0.005
0.162649 0.708333 0.005
0.162579 0.75 0.005
0.16251 0.791667 0.005
0.16244 0.833333 0.005
0.162371 0.875 0.005
0.162301 0.916667 0.005
0.162232 0.958333 0.005
0.162162 1.0 0.005
0.204787 0.0 0.005
0.2047 0.0416667 0.005
0.204614 0.0833333 0.005
0.204527 0.125 0.005
0.20444 0.166667 0.005
0.204353 0.208333 0.005
0.204266 0.25 0.005
0.204179 0.291667 0.005
0.204092 0.333333 0.005
0.204006 0.375 0.005
0.203919 0.416667 0.005
0.203832 0.458333 0.005
0.203745 0.5 0.005
0.203658 0.541667 0.005
0.203571 0.583333 0.005
0.203484 0.625 0.005
0.203398 0.666667 0.005
0.203311 0.708333 0.005
0.203224 0.75 0.005
0.203137 0.791667 0.005
0.20305 0.833333 0.005
0.202963 0.875 0.005
0.202876 0.916667 0.005
0.20279 0.958333 0.005
0.202703 1.0 0.005
0.245745 0.0 0.005
0.245641 0.0416667 0.005
0.245536 0.0833333 0.005
0.245432 0.125 0.005
0.245328 0.166667 0.005
0.245224 0.208333 0.005
0.245119 0.25 0.005
0.245015 0.291667 0.005
0.244911 0.333333 0.005
0.244807 0.375 0.005
0.244703 0.416667 0.005
0.244598 0.458333 0.005
0.244494 0.5 0.005
0.24439 0.541667 0.005
0.244286 0.583333 0.005
0.244181 0.625 0.005
0.244077 0.666667 0.005
0.243973 0.708333 0.005
0.243869 0.75 0.005
0.243764 0.791667 0.005
0.24366 0.833333 0.005
0.243556 0.875 0.005
0.243452 0.916667 0.005
0.243347 0.958333 0.005
0.243243 1.0 0.005
0.286702 0.0 0.005
0.286581 0.0416667 0.005
0.286459 0.0833333 0.005
0.286337 0.125 0.005
0.286216 0.166667 0.005
0.286094 0.208333 0.005
0.285973 0.25 0.005
0.285851 0.291667 0.005
0.285729 0.333333 0.005
0.285608 0.375 0.005
0.285486 0.416667 0.005
0.285365 0.458333 0.005
0.285243 0.5 0.005
0.285121 0.541667 0.005
0.285 0.583333 0.005
0.284878 0.625 0.005
0.284757 0.666667 0.005
0.284635 0.708333 0.005
0.284513 0.75 0.005
0.284392 0.791667 0.005
0.28427 0.833333 0.005
0.284149 0.875 0.005
0.284027 0.916667 0.005
0.283905 0.958333 0.005
0.283784 1.0 0.005
0.32766 0.0 0.005
0.327521 0.0416667 0.005
0.327382 0.0833333 0.005
0.327243 0.125 0.005
0.327104 0.166667 0.005
0.326965 0.208333 0.005
0.326826 0.25 0.005
0.326687 0.291667 0.005
0.326548 0.333333 0.005
0.326409 0.375 0.005
0.32627 0.416667 0.005
0.326131 0.458333 0.005
0.325992 0.5 0.005
0.325853 0.541667 0.005
0.325714 0.583333 0.005
0.325575 0.625 0.005
0.325436 0.666667 0.005
0.325297 0.708333 0.005
0.325158 0.75 0.005
0.325019 0.791667 0.005
0.32488 0.833333 0.005
0.324741 0.875 0.005
0.324602 0.916667 0.005
0.324463 0.958333 0.005
0.324324 1.0 0.005
0.368617 0.0 0.005
0.368461 0.0416667 0.005
0.368305 0.0833333 0.005
0.368148 0.125 0.005
0.367992 0.166667 0.005
0.367835 0.208333 0.005
0.367679 0.25 0.005
0.367523 0.291667 0.005
0.367366 0.333333 0.005
0.36721 0.375 0.005
0.367054 0.416667 0.005
0.366897 0.458333 0.005
0.366741 0.5 0.005
0.366585 0.541667 0.005
0.366428 0.583333 0.005
0.366272 0.625 0.005
0.366116 0.666667 0.005
0.365959 0.708333 0.005
0.365803 0.75 0.005
0.365647 0.791667 0.005
0.36549 0.833333 0.005
0.365334 0.875 0.005
0.365178 0.916667 0.005
0.365021 0.958333 0.005
0.364865 1.0 0.005
0.409575 0.0 0.005
0.409401 0.0416667 0.005
0.409227 0.0833333 0.005
0.409054 0.125 0.005
0.40888 0.166667 0.005
0.408706 0.208333 0.005
0.408532 0.25 0.005
0.408359 0.291667 0.005
0.408185 0.333333 0.005
0.408011 0.375 0.005
0.407838 0.416667 0.005
0.407664 0.458333 0.005
0.40749 0.5 0.005
0.407316 0.541667 0.005
0.407143 0.583333 0.005
0.406969 0.625 0.005
0.406795 0.666667 0.005
0.406621 0.708333 0.005
0.406448 0.75 0.005
0.406274 0.791667 0.005
0.4061 0.833333 0.005
0.405927 0.875 0.005
0.405753 0.916667 0.005
0.405579 0.958333 0.005
0.405405 1.0 0.005
0.450532 0.0 0.005
0.450341 0.0416667 0.005
0.45015 0.0833333 0.005
0.449959 0.125 0.005
0.449768 0.166667 0.005
0.449577 0.208333 0.005
0.449386 0.25 0.005
0.449195 0.291667 0.005
0.449003 0.333333 0.005
0.448812 0.375 0.005
0.448621 0.416667 0.005
0.44843 0.458333 0.005
0.448239 0.5 0.005
0.448048 0.541667 0.005
0.447857 0.583333 0.005
0.447666 0.625 0.005
0.447475 0.666667 0.005
0.447284 0.708333 0.005
0.447093 0.75 0.005
0.446901 0.791667 0.005
0.44671 0.833333 0.005
0.446519 0.875 0.005
0.446328 0.916667 0.005
0.446137 0.958333 0.005
0.445946 1.0 0.005
0.49149 0.0 0.005
0.491281 0.0416667 0.005
0.491073 0.0833333 0.005
0.490864 0.125 0.005
0.490656 0.166667 0.005
0.490447 0.208333 0.005
0.490239 0.25 0.005
0.49003 0.291667 0.005
0.489822 0.333333 0.005
0.489613 0.375 0.005
0.489405 0.416667 0.005
0.489197 0.458333 0.005
0.488988 0.5 0.005
0.48878 0.541667 0.005
0.488571 0.583333 0.005
0.488363 0.625 0.005
0.488154 0.666667 0.005
0.487946 0.708333 0.005
0.487737 0.75 0.005
0.487529 0.791667 0.005
0.48732 0.833333 0.005
0.487112 0.875 0.005
0.486903 0.916667 0.005
0.486695 0.958333 0.005
0.486486 1.0 0.005
0.531954 0.00563435 0.005
0.531749 0.0470663 0.005
0.531544 0.0884982 0.005
0.531338 0.12993 0.005
0.531133 0.171362 0.005
0.530928 0.212794 0.005
0.530722 0.254226 0.005
0.530517 0.295658 0.005
0.530312 0.33709 0.005
0.530107 0.378521 0.005
0.529901 0.419953 0.005
0.529696 0.461385 0.005
0.529491 0.502817 0.005
0.529285 0.544249 0.005
0.52908 0.585681 0.005
0.528875 0.627113 0.005
0.528669 0.668545 0.005
0.528464 0.709977 0.005
0.528259 0.751409 0.005
0.528054 0.79284 0.005
0.527848 0.834272 0.005
0.527643 0.875704 0.005
0.527438 0.917136 0.005
0.527232 0.958568 0.005
0.527027 1.0 0.005
0.572289 0.0127465 0.005
0.572093 0.0538821 0.005
0.571896 0.0950177 0.005
0.571699 0.136153 0.005
0.571502 0.177289 0.005
0.571306 0.218424 0.005
0.571109 0.25956 0.005
0.570912 0.300695 0.005
0.570715 0.341831 0.005
0.570519 0.382967 0.005
0.570322 0.424102 0.005
0.570125 0.465238 0.005
0.569928 0.506373 0.005
0.569732 0.547509 0.005
0.569535 0.588644 0.005
0.569338 0.62978 0.005
0.569142 0.670916 0.005
0.568945 0.712051 0.005
0.568748 0.753187 0.005
0.568551 0.794322 0.005
0.568355 0.835458 0.005
0.568158 0.876593 0.005
0.567961 0.917729 0.005
0.567764 0.958864 0.005
0.567568 1.0 0.005
0.612625 0.0198587 0.005
0.612436 0.0606979 0.005
0.612248 0.101537 0.005
0.61206 0.142376 0.005
0.611872 0.183216 0.005
0.611684 0.224055 0.005
0.611496 0.264894 0.005
0.611307 0.305733 0.005
0.611119 0.346572 0.005
0.610931 0.387412 0.005
0.610743 0.428251 0.005
0.610555 0.46909 0.005
0.610366 0.509929 0.005
0.610178 0.550769 0.005
0.60999 0.591608 0.005
0.609802 0.632447 0.005
0.609614 0.673286 0.005
0.609425 0.714125 0.005
0.609237 0.754965 0.005
0.609049 0.795804 0.005
0.608861 0.836643 0.005
0.608673 0.877482 0.005
0.608484 0.918322 0.005
0.608296 0.959161 0.005
0.608108 1.0 0.005
0.65296 0.0269708 0.005
0.65278 0.0675137 0.005
0.652601 0.108057 0.005
0.652421 0.148599 0.005
0.652241 0.189142 0.005
0.652062 0.229685 0.005
0.651882 0.270228 0.005
0.651702 0.310771 0.005
0.651523 0.351314 0.005
0.651343 0.391857 0.005
0.651164 0.4324 0.005
0.650984 0.472943 0.005
0.650804 0.513485 0.005
0.650625 0.554028 0.005
0.650445 0.594571 0.005
0.650265 0.635114 0.005
0.650086 0.675657 0.005
0.649906 0.7162 0.005
0.649726 0.756743 0.005
0.649547 0.797286 0.005
0.649367 0.837828 0.005
0.649188 0.878371 0.005
0.649008 0.918914 0.005
0.648828 0.959457 0.005
0.648649 1.0 0.005
0.693295 0.034083 0.005
0.693124 0.0743295 0.005
0.692953 0.114576 0.005
0.692782 0.154823 0.005
0.692611 0.195069 0.005
0.69244 0.235316 0.005
0.692269 0.275562 0.005
0.692098 0.315809 0.005
0.691926 0.356055 0.005
0.691755 0.396302 0.005
0.691584 0.436548 0.005
[...]
CELL_DATA 888
SCALARS P float 1
LOOKUP_TABLE default
100140.22812509417
100139.88404001849
100197.752731596
100137.51512752396
100197.62595054109
100281.73681438048
100133.44842330624
100194.33499266121
100282.0039745235
100404.69299934314
100127.99289219767
100188.4698086817
100277.22358582231
100405.63164594692
100585.33458917058
100121.45935522787
100180.55374847891
100268.42473222998
100398.38128574843
100587.39247539725
100852.00851379409
100114.15433939768
100171.0849163671
100256.51642229418
100384.74201693686
100575.92721812398
100855.85209562603
101248.54908181661
100106.36693224279
100160.53510196731
100242.33818777291
100366.32275075956
100554.16812423008
100836.92373017399
101254.8920863508
101845.09675510267
100098.35672403904
100149.33586666785
100226.65526248138
100344.57690270591
100525.02726045428
100801.24865333979
101222.07227804912
101853.49417633346
102760.6694315346
100090.34604791195
100137.86540911386
100210.14090029399
100320.77923857987
100491.06560061088
100754.23497645077
101161.91038411093
101793.12001470997
102763.91714913148
104217.6401165463
100082.51686052191
100126.44084867049
100193.36290611964
100296.00136797673
100454.4283698713
100700.44126503101
101084.68684782145
101688.50339924429
102644.6247167404
104177.97719377851
106696.52672231235
100075.01137372576
100115.31664110215
100176.78045440398
100271.10666324876
100416.82790490761
100643.47274513163
100998.5246131661
101559.48586767397
102456.47689468678
103922.23296234378
106442.20699767333
111453.53366082719
100067.9354311199
100104.68790155613
100160.74869878493
100246.75880914807
100379.56498431983
100586.02620229438
100909.38297497437
101420.32183330572
102237.56071617623
103571.82266054626
105846.96412538152
110193.04097349427
122572.17354726823
100061.36332746522
100094.69680144801
100145.52954016495
100223.4459248143
100343.58363563975
100530.01496028758
100821.36791118569
101280.4541118121
102011.67684408797
103195.85271897336
105174.3431183414
108720.72048394321
116321.81725746357
132875.03586830993
100055.34330725364
100085.44060089394
100131.30545059631
100201.5075068567
100309.5301122526
100476.72156382725
100737.14718442428
101145.73966859803
101792.53816648634
102829.31477184856
104526.1207656581
107417.66508411743
112764.15289278123
123167.39335917504
140944.73242734466
100049.90316029266
100076.98003971325
100118.19393792622
100181.16282174125
100277.81738016263
100426.94745576587
100658.33190789813
101019.54311521944
101587.43424737564
102488.35970718108
103936.58292643416
106316.29839258354
110371.74965518009
117568.66308458708
129712.82356349028
147485.23070487674
100045.05543756146
100069.34772755572
100106.2615343747
100162.53806340702
100248.68119855598
100381.13737350052
100585.78535036606
100903.57463670394
101399.75821068765
102179.33890118165
103413.85791906633
105390.24293225288
108599.96861562373
113947.99072985273
122655.53199801031
135669.89323368177
152872.30785300946
100040.80221575432
100062.55552813821
100095.53668371573
100145.68907555066
100222.22531915501
100339.4838019051
100519.86448017032
100798.48669575324
101230.62102469661
101903.6186588397
102956.16828408118
104609.41170942364
107214.10303865316
111380.21839372607
117940.54446900751
127698.45976457218
140989.2125969525
157335.47063027718
100037.13942371696
100056.60132526407
100086.02078578534
100130.62218100987
100198.46207987235
100302.00493727924
100460.58839333334
100704.26862336551
101079.8298489123
101660.09479632291
102558.20507102349
103948.68926324524
106095.41700897008
109439.34365046579
114575.35407136386
122130.63715701771
132521.67275247295
145693.7129752139
161033.09456595493
100034.06067316023
100051.47502492314
100077.69764922687
100117.3098963114
100177.34122221795
100268.6055269763
100407.76687518127
100620.52318865102
100946.48121025412
101446.52108201684
102213.65014401407
103388.0510879479
105175.40989991193
107910.83944732008
112040.93924820358
118057.35174221765
126351.5983143074
137034.6312914662
149826.1181593806
164084.48890009223
100031.56106902154
100047.16394991447
100070.54218009714
100105.70534528198
100158.77574999662
100239.12094314538
100361.0867267191
100546.63732695051
100829.32800717458
101260.19980527996
101916.19853595566
102911.41111070583
104410.05792564726
106675.66754697872
110057.1507829194
114949.85194730494
121703.07691935617
130486.2946568039
141195.3729374015
153433.6955866024
166584.4093585514
100029.64151877002
100043.65829372169
100064.52766449867
100095.75281781357
100142.6584796286
100213.35079635293
100320.17274714338
100481.89705376016
100726.9876046285
101098.34952037601
101659.99294661976
102505.69021274586
103768.78729376168
105661.17984220776
108463.31817287914
112501.0204774246
118084.6598925029
125407.22496733628
134455.80534466988
144988.87543182226
156563.1254162477
168611.4140856565
100028.31449713722
100040.95771261796
100059.6336424154
100087.39902250536
100128.87943334923
100191.08371609649
100284.62907256588
100425.56640169646
100638.06937122565
100958.30165941124
101439.76123303224
102160.1171921765
103228.95314979629
104819.21985095824
107160.64984318825
110526.34167732029
115193.1743892527
121364.02825823575
129085.41540518023
138209.31478499123
148415.72012888134
159259.16277472625
170232.66389624894
100027.61378982992
100039.08081867638
100055.85577306326
100080.60338935618
100117.33817751576
100172.11667652793
100254.06979337602
100376.92902483538
100561.25286949368
100837.59766867607
101250.85403068954
101865.75164533267
102773.14542987908
104115.70148225395
106083.80613961688
108908.87153159462
112838.03474338113
118076.22198467086
124713.17754772732
132672.52741042772
141715.61165744413
151486.52199230823
161564.41223342565
171506.81424817073
100038.08170520465
100053.22038589971
100075.35250682262
100107.95946403894
100156.27188017656
100228.1421073065
100335.32447836781
100495.32616300594
100734.0238366003
101089.21816203308
101615.13650238562
102387.62054172627
103525.19326581508
105186.93540561512
107570.01850289875
110894.41770692346
115361.17890493551
121090.87391507642
128067.33756017135
136120.03917000463
144957.08300571959
154216.98221759155
163518.82844832743
172482.70078646686
100051.80996041118
100071.68120868328
100100.71182433974
100143.41623547004
100206.54664387576
100300.16928481756
100439.21137087033
100645.63389643183
100951.3665692835
101402.0279068237
102061.28189267102
103028.12784794743
104436.2027542245
106453.96607195279
109276.36276537842
113095.65580333125
118052.34688159119
124180.02918237804
131372.1016180884
139392.80264983044
147926.41633469032
156626.69450968722
165159.2769648416
173205.7401566099
100069.70965905474
100095.6382766984
100133.48687627826
100189.05861963627
100270.97709333026
100391.98342648441
100570.74956629613
100834.32007191882
101221.21312493294
101785.10541871878
102609.04884773224
103805.71465411768
105519.23956627311
107921.53051808878
111192.63228891497
115483.27552605564
120865.54499324123
127291.5058198054
134583.5838511619
142466.8153329728
150623.65789040324
158736.7905473105
166521.11414351998
173710.86498595617
100092.90770730004
100126.53242115608
100175.56341795882
100247.38657044971
100352.88484769459
100507.95842663311
100735.56849391262
101068.33898516005
101551.69949400797
102255.56024925505
103275.18462648045
104733.99305625969
106782.83636262568
109587.42891330397
113300.96580532531
118022.67879675703
123754.92936981059
130379.02115818438
137667.06749512377
145326.9228713772
153054.41639246093
160569.89200708896
167633.73076478945
174033.1453992258
100122.78415085125
100166.11031644809
100229.20168966021
100321.35388851816
100456.12128828187
100653.0358629184
100939.80381420067
101354.9984606627
101957.62673631696
102828.43376116935
104073.13893421147
105823.53722535417
108230.1552375156
111442.71845625705
115577.36463728007
120676.54025650467
126676.82693732086
133403.07002005875
140596.36897345385
147964.9943595533
155228.24020245206
162147.8817361251
168528.1164487547
174199.11067319193
100161.01032514877
100216.46519881775
100297.07566314767
100414.39843018736
100585.07016246964
100832.66975750084
101190.03554726928
101707.10610746134
102452.43295253877
103516.5909685467
105014.38064358587
107080.99997481762
109858.79228067756
113472.28514126831
117993.33122801472
123406.62015320556
129591.17650246927
136330.6848024927
143352.4885186141
150377.6135704883
157156.96579654433
163492.21835210352
169228.53458217607
174237.60233863938
100209.58845517538
100280.07469672707
100382.30601471014
100530.45668005745
100744.62297564965
101052.81319837189
101497.38215410487
102136.62223180944
103048.14591924295
104331.693185492
106107.6711276778
108508.62678319088
111660.86624582764
115655.92454723938
120517.45866971114
126175.51092930479
132462.15864713298
139135.21054467268
145922.56179988745
152566.83663436322
158854.15386379787
164624.43112271387
169760.67076757163
174166.26484018803
100270.88899305914
100359.8363874834
100488.48445479886
100673.96344128584
100940.19618431915
101323.14966539522
101872.46154643473
102654.65421533414
103756.20369732878
105283.6228708735
107358.40334157957
110103.9999811243
113623.31364283177
117969.37221536608
123116.91698968667
128947.62684043389
135258.67433239124
141796.2035563957
148298.92958914133
154537.13928602103
160333.96211596983
165565.12844982906
170145.73403307813
174011.8152788519
100347.6878238708
100459.09930656555
100619.69257845645
100849.89282745363
101180.2745822773
101653.12836161075
102325.46885518762
103272.1410602909
104586.89859709392
106379.76375781215
108768.1813380322
111859.99440124893
115728.6366182567
120385.48149449751
125758.7812685063
131690.3594750496
137954.53963150224
144297.2413234898
150477.5217074418
156296.47586225052
161611.99422907986
166333.72505628096
170405.5256824381
173789.77660181848
100443.20025517578
100581.6935511749
100780.55392480089
101065.75737560345
101473.31123628613
102052.0661362247
102866.69539930204
103999.38313974038
105548.82387260608
107624.57456141016
110334.5816419669
113765.09695327788
117955.61581748676
122875.37285513384
128411.07761212427
134373.89011654002
140528.14805698194
146628.32514863397
152458.5323065644
157853.20114851926
162703.22836307483
166948.40358439612
170559.71313695665
173524.42263326363
100561.11869455337
100731.99403142977
100977.8199927431
101329.16596600084
101827.81252178056
102529.55148696051
103506.14799360416
104845.5089646891
106648.31924072425
109019.18571443914
112051.07394046178
115803.71018615668
120280.21114068791
125409.44399422627
131043.55231274676
136973.17222230384
142961.4927226934
148781.0166502852
154243.8205484794
159216.70494068216
163622.730677124
167428.25240530245
170629.60552684244
173241.1257975192
100705.68048607455
100916.19942606764
101218.41960665943
101647.9153916934
102252.6769191433
103095.15429305607
104253.14787219258
105818.07989875662
107889.064953566
110561.06230159868
113907.1606739365
117956.84576787916
122676.31386400663
127958.29675229339
133627.6228952891
139465.35031159798
145241.62645790968
150751.2946319794
155837.3055669371
160397.78181908434
164384.87047453012
167791.0116515376
170637.41198604298
172982.48086855962
100882.78042922879
101140.74912487359
101509.56267055162
102030.26314912448
102756.94701328082
103758.07032528412
105115.86638027002
106922.54808883296
109271.68991607425
112244.0590319948
115888.56343352457
120202.60102221146
125116.8228533739
130493.02548134874
136138.03312899996
141830.8980507745
147356.81955681255
152536.90426833782
157243.76626223445
161406.44753243504
165004.1848853419
168054.6027325947
170611.676481797
172800.285915781
101098.57135464788
101412.41115716267
101858.95833826358
102484.73224195634
103349.55635487725
104526.74828289622
106100.90729191937
108161.8444510724
110793.51961670392
114058.21888848297
117977.72634598805
122516.51222837916
127573.58839197896
132986.32494686692
138551.29316488554
144053.86931194592
149299.28463317972
154136.60156401835
158468.0405298082
162251.820255797
165492.67396009358
168234.95153102823
170580.98793847667
101359.57398864598
101738.4611902653
102274.64294723149
103019.87835915033
104038.9483609714
105408.48216148556
107212.89823704936
109536.0555758666
112448.38078678527
115990.0883548171
120154.07502091928
124873.40851917962
130019.1081034386
135412.0482172356
140846.36371277887
146119.9341042634
151061.59846333336
155548.64713343268
159513.27859232525
162939.67905431546
165855.8105424405
168338.51505297283
101672.81112801858
102126.55634781616
102764.79436203174
103644.00720455301
104832.73449650769
106408.9636290976
108453.97077073852
111042.13278294633
114226.61334508957
118022.93007165143
122394.6389086477
127245.89996081105
132425.6765635335
137745.5585187883
143003.63523293316
148015.77653896846
152636.39942991157
156771.16918512803
160378.37377903942
163465.09991526906
166078.20423968064
102045.69898989153
102584.54287783714
103337.4812862998
104364.81597721748
105737.31412625514
107531.86972989168
109823.51942120536
112673.58505154843
116114.72682480207
120136.47421308683
124673.7847750004
129605.83795800763
134766.0069496806
139962.5030923268
145004.088335528
149727.96259752175
154014.08970125642
157794.57253889748
161048.94765632463
163792.7669911894
102485.89025298793
103120.24791741771
104000.35231010785
105189.05155925477
106757.40724388699
108778.49342326696
111317.83469128258
114420.51059159258
118096.33481600511
122308.02504314689
126964.69890468435
131924.96452454076
137012.67760152204
142038.84486062077
146828.17990734585
151239.51269711475
155178.15339019455
158594.23874109486
161470.07052970954
103001.040676236
103741.21087696505
104760.30099241826
106122.12799328711
107895.64816055646
110147.27146034499
112929.792887998
116269.02671158785
120151.05462268153
124512.19913355382
129238.24424333182
134173.42350006045
139137.33389579385
143949.53234369616
148452.52144306106
152526.24080998014
156092.76276066032
159098.52388650368
103598.5837403729
104454.34735666982
105623.11680457185
107167.62512155538
109152.20135154434
111633.4966262348
114648.50232098307
118201.93607829917
122254.99622754968
126719.72704757677
131463.3788490167
136319.42424983464
141109.3149233427
145664.50722644836
149844.54587546072
153542.52279389152
156670.67496015932
104285.41946061123
105265.60034699609
106592.98976727025
108326.88494345576
110524.09321421522
113228.66828034542
116459.25834281342
120197.75405744376
124381.01814977945
128899.88017606724
133605.76794392674
138327.808165269
142892.50887746242
147143.19171683848
150947.7880097293
154184.3854023838
105067.53777410493
106179.5450302807
107672.1335452493
109598.58970985464
112005.32976837404
114920.66532001432
118343.0190869234
122230.77208791768
126497.81150925622
131016.06101023217
135626.3489608298
140156.7353494843
144439.10722819035
148319.50840592556
151644.92149074897
105949.64960392556
107198.89559826796
108860.3002797
110978.15439081889
113585.57806081345
116692.65654217973
120276.11084099926
124270.51538052251
128568.8844251365
133027.46034756384
137479.7118807417
141751.74924265043
145673.6095868584
149062.83720466835
106934.74382651606
108324.05790525938
110153.99249060186
112457.02904520382
115250.09243279463
118522.92924900081
122229.13334978149
126280.7254000608
130551.51132331026
134884.0525261789
139104.45139188698
143029.86341650924
146453.8414405088
108023.51907010606
109552.50217734043
111546.40449877334
114022.70947660772
116979.2552733559
120383.92868488372
124166.61038405703
128217.76749259772
132392.54680234246
136520.402947639
140410.46758263782
143837.60955270525
109213.96134193936
110878.19742204197
113026.05663287033
115656.84816305674
118747.20953377646
122241.24913515346
126044.99242429926
130027.10392383799
134023.15335636854
137839.75971629797
141236.57960012156
110500.5394763178
112290.93039888667
114576.5147592032
117335.54895028097
120520.96485241145
124051.66946811021
127808.84884912346
131637.04248768344
135342.52815717214
138675.10885374335
111873.63619478537
113775.33689385717
116175.14246935
119027.17101743774
122258.23112430742
125759.72680736236
129384.85358040644
132943.03629229293
136177.83284163257
113318.5178572355
115309.90610859271
117791.75133597002
120690.54202060816
123903.82673969255
127291.6040752673
130666.82227800661
133770.62422082125
114814.29254433417
116865.54397453881
119386.26473518737
122271.81168851697
125384.38373622064
128540.50971913437
131479.63993637424
116332.62674694657
118403.5084232201
120906.34922411133
123698.23621525115
126594.1754765374
129332.7144944208
117835.52637396532
119872.1935721249
122280.17789690327
124865.16342786234
127361.52840883928
119272.14936933035
121201.50076612773
123405.45263507088
125605.62861405234
120573.32943292777
122291.05567601403
124118.97500219182
121639.94371969019
122981.46036953993
122315.64643227095
SCALARS T float 1
LOOKUP_TABLE default
300.12103520511823
300.120719158046
300.1711500633365
300.11864958063245
300.17099747688695
300.24472945493306
300.1151095793122
300.1680962513146
300.24486477318914
300.3532429646523
300.1103680305008
300.1629581606685
300.24059746885695
300.35384469701836
300.5141636120597
300.10469587861263
300.15604050349145
300.23282386580377
300.3472665718214
300.5154831992943
300.7545207982453
300.09836019280476
300.14777976412034
300.22234286574985
300.3350859691239
300.5048710113959
300.7568304451027
301.11702328054065
300.09161243789544
300.13858923031796
300.20989495443627
300.3187277260683
300.48518027334023
300.7389003623315
301.1202470233263
301.6712297566617
300.0846779061067
300.12884613428605
300.19615475829505
300.2994838359432
300.45901400861555
300.7061099992936
301.08838720358324
301.67337751609745
302.53578196474706
300.07774902634696
300.1188799978125
300.1817140418615
300.2784862520301
300.4286691603315
300.6633450853544
301.03212570716204
301.61345322982334
302.526868505153
303.9278624755236
300.070982780776
300.10896603018284
300.16706960369163
300.25668248412774
300.3960655029949
300.61473349407095
300.960852627639
301.5138921141999
302.4067734708063
303.86665491861106
306.2895574293557
300.06450140518183
300.09932403204306
300.1526208909552
300.2348309896666
300.3627260435908
300.5635268220862
300.8819922369936
301.3929959738224
302.22503553326
303.60943180094597
306.0112609994234
310.65905712521726
300.05839546375415
300.09012161989784
300.1386747257083
300.21350993057234
300.32979706752076
300.5121358851729
300.80095624253977
301.26389374205115
302.0170098513642
303.26830519703236
305.4261360554824
309.48604220740344
319.8724337320019
300.05272814801265
300.08148009873264
300.12545545558714
300.1931400724977
300.2981002194634
300.46224816887275
300.7214253159496
301.13519739963834
301.8047137053611
302.90747165493053
304.77451847776064
308.1085020506928
314.87217901185153
327.8869759512279
300.0475401311627
300.07348169152334
300.11311767057373
300.1740100686346
300.26818860115293
300.41497318615467
300.64574203049784
301.01214478998315
301.60064716986506
302.5593263654965
304.1510535690897
306.8740450319616
311.77814645533886
320.6251016042599
333.9143708784712
300.0428544732541
300.0661770073701
300.10175931115106
300.15630266806403
300.2404071176594
300.3709843786422
300.57527527937145
300.8976415473326
301.4112385710423
302.2384743084743
303.58796162430286
305.8242084131718
309.5968902632858
316.00699637335293
325.9052890224481
338.6669038533952
300.0386811686999
300.059592438896
300.0914341940681
300.1401194332355
300.2149444332422
300.3306363388937
300.5107145315153
300.79306437133874
301.23925824814853
301.95021976563
303.0924898050993
304.94122909239394
307.9413964130578
312.82855001686863
320.33953109522713
330.5446344876961
342.49986489247215
300.03502128093095
300.0537366293111
300.0821634333199
300.12550120275745
300.19187439529406
300.2940619206275
300.4522979604954
300.6988313921748
301.0853707545562
301.6951712221957
302.6621846896621
304.19945702127785
306.6327068800556
310.48822730824094
316.35006861582553
324.49578628231086
334.5640147236835
345.62169471268055
300.0318706812229
300.0486063595766
300.0739451420709