# vtk DataFile Version 2.0
JuliaCFD
ASCII
DATASET UNSTRUCTURED_GRID

POINTS 1900 float
0.0 0.0 0.005
0.0 0.0416667 0.005
0.0 0.0833333 0.005
0.0 0.125 0.005
0.0 0.166667 0.005
0.0 0.208333 0.005
0.0 0.25 0.005
0.0 0.291667 0.005
0.0 0.333333 0.005
0.0 0.375 0.005
0.0 0.416667 0.005
0.0 0.458333 0.005
0.0 0.5 0.005
0.0 0.541667 0.005
0.0 0.583333 0.005
0.0 0.625 0.005
0.0 0.666667 0.005
0.0 0.708333 0.005
0.0 0.75 0.005
0.0 0.791667 0.005
0.0 0.833333 0.005
0.0 0.875 0.005
0.0 0.916667 0.005
0.0 0.958333 0.005
0.0 1.0 0.005
0.0409575 0.0 0.005
0.0409401 0.0416667 0.005
0.0409227 0.0833333 0.005
0.0409054 0.125 0.005
0.040888 0.166667 0.005
0.0408706 0.208333 0.005
0.0408532 0.25 0.005
0.0408359 0.291667 0.005
0.0408185 0.333333 0.005
0.0408011 0.375 0.005
0.0407838 0.416667 0.005
0.0407664 0.458333 0.005
0.040749 0.5 0.005
0.0407316 0.541667 0.005
0.0407143 0.583333 0.005
0.0406969 0.625 0.005
0.0406795 0.666667 0.005
0.0406621 0.708333 0.005
0.0406448 0.75 0.005
0.0406274 0.791667 0.005
0.04061 0.833333 0.005
0.0405927 0.875 0.005
0.0405753 0.916667 0.005
0.0405579 0.958333 0.005
0.0405405 1.0 0.005
0.0819149 0.0 0.005
0.0818802 0.0416667 0.005
0.0818455 0.0833333 0.005
0.0818107 0.125 0.005
0.081776 0.166667 0.005
0.0817412 0.208333 0.005
0.0817065 0.25 0.005
0.0816717 0.291667 0.005
0.081637 0.333333 0.005
0.0816022 0.375 0.005
0.0815675 0.416667 0.005
0.0815328 0.458333 0.005
0.081498 0.5 0.005
0.0814633 0.541667 0.005
0.0814285 0.583333 0.005
0.0813938 0.625 0.005
0.081359 0.666667 0.005
0.0813243 0.708333 0.005
0.0812895 0.75 0.005
0.0812548 0.791667 0.005
0.0812201 0.833333 0.005
0.0811853 0.875 0.005
0.0811506 0.916667 0.005
0.0811158 0.958333 0.005
0.0810811 1.0 0.005
0.122872 0.0 0.005
0.12282 0.0416667 0.005
0.122768 0.0833333 0.005
0.122716 0.125 0.005
0.122664 0.166667 0.005
0.122612 0.208333 0.005
0.12256 0.25 0.005
0.122508 0.291667 0.005
0.122455 0.333333 0.005
0.122403 0.375 0.005
0.122351 0.416667 0.005
0.122299 0.458333 0.005
0.122247 0.5 0.005
0.122195 0.541667 0.005
0.122143 0.583333 0.005
0.122091 0.625 0.005
0.122039 0.666667 0.005
0.121986 0.708333 0.005
0.121934 0.75 0.005
0.121882 0.791667 0.005
0.12183 0.833333 0.005
0.121778 0.875 0.005
0.121726 0.916667 0.005
0.121674 0.958333 0.005
0.121622 1.0 0.005
0.16383 0.0 0.005
0.16376 0.0416667 0.005
0.163691 0.0833333 0.005
0.163621 0.125 0.005
0.163552 0.166667 0.005
0.163482 0.208333 0.005
0.163413 0.25 0.005
0.163343 0.291667 0.005
0.163274 0.333333 0.005
0.163204 0.375 0.005
0.163135 0.416667 0.005
0.163066 0.458333 0.005
0.162996 0.5 0.005
0.162927 0.541667 0.005
0.162857 0.583333 0.005
0.162788 0.625 0.005
0.162718 0.666667 0.005
0.162649 0.708333 0.005
0.162579 0.75 0.005
0.16251 0.791667 0.005
0.16244 0.833333 0.005
0.162371 0.875 0.005
0.162301 0.916667 0.005
0.162232 0.958333 0.005
0.162162 1.0 0.005
0.204787 0.0 0.005
0.2047 0.0416667 0.005
0.204614 0.0833333 0.005
0.204527 0.125 0.005
0.20444 0.166667 0.005
0.204353 0.208333 0.005
0.204266 0.25 0.005
0.204179 0.291667 0.005
0.204092 0.333333 0.005
0.204006 0.375 0.005
0.203919 0.416667 0.005
0.203832 0.458333 0.005
0.203745 0.5 0.005
0.203658 0.541667 0.005
0.203571 0.583333 0.005
0.203484 0.625 0.005
0.203398 0.666667 0.005
0.203311 0.708333 0.005
0.203224 0.75 0.005
0.203137 0.791667 0.005
0.20305 0.833333 0.005
0.202963 0.875 0.005
0.202876 0.916667 0.005
0.20279 0.958333 0.005
0.202703 1.0 0.005
0.245745 0.0 0.005
0.245641 0.0416667 0.005
0.245536 0.0833333 0.005
0.245432 0.125 0.005
0.245328 0.166667 0.005
0.245224 0.208333 0.005
0.245119 0.25 0.005
0.245015 0.291667 0.005
0.244911 0.333333 0.005
0.244807 0.375 0.005
0.244703 0.416667 0.005
0.244598 0.458333 0.005
0.244494 0.5 0.005
0.24439 0.541667 0.005
0.244286 0.583333 0.005
0.244181 0.625 0.005
0.244077 0.666667 0.005
0.243973 0.708333 0.005
0.243869 0.75 0.005
0.243764 0.791667 0.005
0.24366 0.833333 0.005
0.243556 0.875 0.005
0.243452 0.916667 0.005
0.243347 0.958333 0.005
0.243243 1.0 0.005
0.286702 0.0 0.005
0.286581 0.0416667 0.005
0.286459 0.0833333 0.005
0.286337 0.125 0.005
0.286216 0.166667 0.005
0.286094 0.208333 0.005
0.285973 0.25 0.005
0.285851 0.291667 0.005
0.285729 0.333333 0.005
0.285608 0.375 0.005
0.285486 0.416667 0.005
0.285365 0.458333 0.005
0.285243 0.5 0.005
0.285121 0.541667 0.005
0.285 0.583333 0.005
0.284878 0.625 0.005
0.284757 0.666667 0.005
0.284635 0.708333 0.005
0.284513 0.75 0.005
0.284392 0.791667 0.005
0.28427 0.833333 0.005
0.284149 0.875 0.005
0.284027 0.916667 0.005
0.283905 0.958333 0.005
0.283784 1.0 0.005
0.32766 0.0 0.005
0.327521 0.0416667 0.005
0.327382 0.0833333 0.005
0.327243 0.125 0.005
0.327104 0.166667 0.005
0.326965 0.208333 0.005
0.326826 0.25 0.005
0.326687 0.291667 0.005
0.326548 0.333333 0.005
0.326409 0.375 0.005
0.32627 0.416667 0.005
0.326131 0.458333 0.005
0.325992 0.5 0.005
0.325853 0.541667 0.005
0.325714 0.583333 0.005
0.325575 0.625 0.005
0.325436 0.666667 0.005
0.325297 0.708333 0.005
0.325158 0.75 0.005
0.325019 0.791667 0.005
0.32488 0.833333 0.005
0.324741 0.875 0.005
0.324602 0.916667 0.005
0.324463 0.958333 0.005
0.324324 1.0 0.005
0.368617 0.0 0.005
0.368461 0.0416667 0.005
0.368305 0.0833333 0.005
0.368148 0.125 0.005
0.367992 0.166667 0.005
0.367835 0.208333 0.005
0.367679 0.25 0.005
0.367523 0.291667 0.005
0.367366 0.333333 0.005
0.36721 0.375 0.005
0.367054 0.416667 0.005
0.366897 0.458333 0.005
0.366741 0.5 0.005
0.366585 0.541667 0.005
0.366428 0.583333 0.005
0.366272 0.625 0.005
0.366116 0.666667 0.005
0.365959 0.708333 0.005
0.365803 0.75 0.005
0.365647 0.791667 0.005
0.36549 0.833333 0.005
0.365334 0.875 0.005
0.365178 0.916667 0.005
0.365021 0.958333 0.005
0.364865 1.0 0.005
0.409575 0.0 0.005
0.409401 0.0416667 0.005
0.409227 0.0833333 0.005
0.409054 0.125 0.005
0.40888 0.166667 0.005
0.408706 0.208333 0.005
0.408532 0.25 0.005
0.408359 0.291667 0.005
0.408185 0.333333 0.005
0.408011 0.375 0.005
0.407838 0.416667 0.005
0.407664 0.458333 0.005
0.40749 0.5 0.005
0.407316 0.541667 0.005
0.407143 0.583333 0.005
0.406969 0.625 0.005
0.406795 0.666667 0.005
0.406621 0.708333 0.005
0.406448 0.75 0.005
0.406274 0.791667 0.005
0.4061 0.833333 0.005
0.405927 0.875 0.005
0.405753 0.916667 0.005
0.405579 0.958333 0.005
0.405405 1.0 0.005
0.450532 0.0 0.005
0.450341 0.0416667 0.005
0.45015 0.0833333 0.005
0.449959 0.125 0.005
0.449768 0.166667 0.005
0.449577 0.208333 0.005
0.449386 0.25 0.005
0.449195 0.291667 0.005
0.449003 0.333333 0.005
0.448812 0.375 0.005
0.448621 0.416667 0.005
0.44843 0.458333 0.005
0.448239 0.5 0.005
0.448048 0.541667 0.005
0.447857 0.583333 0.005
0.447666 0.625 0.005
0.447475 0.666667 0.005
0.447284 0.708333 0.005
0.447093 0.75 0.005
0.446901 0.791667 0.005
0.44671 0.833333 0.005
0.446519 0.875 0.005
0.446328 0.916667 0.005
0.446137 0.958333 0.005
0.445946 1.0 0.005
0.49149 0.0 0.005
0.491281 0.0416667 0.005
0.491073 0.0833333 0.005
0.490864 0.125 0.005
0.490656 0.166667 0.005
0.490447 0.208333 0.005
0.490239 0.25 0.005
0.49003 0.291667 0.005
0.489822 0.333333 0.005
0.489613 0.375 0.005
0.489405 0.416667 0.005
0.489197 0.458333 0.005
0.488988 0.5 0.005
0.48878 0.541667 0.005
0.488571 0.583333 0.005
0.488363 0.625 0.005
0.488154 0.666667 0.005
0.487946 0.708333 0.005
0.487737 0.75 0.005
0.487529 0.791667 0.005
0.48732 0.833333 0.005
0.487112 0.875 0.005
0.486903 0.916667 0.005
0.486695 0.958333 0.005
0.486486 1.0 0.005
0.531954 0.00563435 0.005
0.531749 0.0470663 0.005
0.531544 0.0884982 0.005
0.531338 0.12993 0.005
0.531133 0.171362 0.005
0.530928 0.212794 0.005
0.530722 0.254226 0.005
0.530517 0.295658 0.005
0.530312 0.33709 0.005
0.530107 0.378521 0.005
0.529901 0.419953 0.005
0.529696 0.461385 0.005
0.529491 0.502817 0.005
0.529285 0.544249 0.005
0.52908 0.585681 0.005
0.528875 0.627113 0.005
0.528669 0.668545 0.005
0.528464 0.709977 0.005
0.528259 0.751409 0.005
0.528054 0.79284 0.005
0.527848 0.834272 0.005
0.527643 0.875704 0.005
0.527438 0.917136 0.005
0.527232 0.958568 0.005
0.527027 1.0 0.005
0.572289 0.0127465 0.005
0.572093 0.0538821 0.005
0.571896 0.0950177 0.005
0.571699 0.136153 0.005
0.571502 0.177289 0.005
0.571306 0.218424 0.005
0.571109 0.25956 0.005
0.570912 0.300695 0.005
0.570715 0.341831 0.005
0.570519 0.382967 0.005
0.570322 0.424102 0.005
0.570125 0.465238 0.005
0.569928 0.506373 0.005
0.569732 0.547509 0.005
0.569535 0.588644 0.005
0.569338 0.62978 0.005
0.569142 0.670916 0.005
0.568945 0.712051 0.005
0.568748 0.753187 0.005
0.568551 0.794322 0.005
0.568355 0.835458 0.005
0.568158 0.876593 0.005
0.567961 0.917729 0.005
0.567764 0.958864 0.005
0.567568 1.0 0.005
0.612625 0.0198587 0.005
0.612436 0.0606979 0.005
0.612248 0.101537 0.005
0.61206 0.142376 0.005
0.611872 0.183216 0.005
0.611684 0.224055 0.005
0.611496 0.264894 0.005
0.611307 0.305733 0.005
0.611119 0.346572 0.005
0.610931 0.387412 0.005
0.610743 0.428251 0.005
0.610555 0.46909 0.005
0.610366 0.509929 0.005
0.610178 0.550769 0.005
0.60999 0.591608 0.005
0.609802 0.632447 0.005
0.609614 0.673286 0.005
0.609425 0.714125 0.005
0.609237 0.754965 0.005
0.609049 0.795804 0.005
0.608861 0.836643 0.005
0.608673 0.877482 0.005
0.608484 0.918322 0.005
0.608296 0.959161 0.005
0.608108 1.0 0.005
0.65296 0.0269708 0.005
0.65278 0.0675137 0.005
0.652601 0.108057 0.005
0.652421 0.148599 0.005
0.652241 0.189142 0.005
0.652062 0.229685 0.005
0.651882 0.270228 0.005
0.651702 0.310771 0.005
0.651523 0.351314 0.005
0.651343 0.391857 0.005
0.651164 0.4324 0.005
0.650984 0.472943 0.005
0.650804 0.513485 0.005
0.650625 0.554028 0.005
0.650445 0.594571 0.005
0.650265 0.635114 0.005
0.650086 0.675657 0.005
0.649906 0.7162 0.005
0.649726 0.756743 0.005
0.649547 0.797286 0.005
0.649367 0.837828 0.005
0.649188 0.878371 0.005
0.649008 0.918914 0.005
0.648828 0.959457 0.005
0.648649 1.0 0.005
0.693295 0.034083 0.005
0.693124 0.0743295 0.005
0.692953 0.114576 0.005
0.692782 0.154823 0.005
0.692611 0.195069 0.005
0.69244 0.235316 0.005
0.692269 0.275562 0.005
0.692098 0.315809 0.005
0.691926 0.356055 0.005
0.691755 0.396302 0.005
0.691584 0.436548 0.005
[...]
CELL_DATA 888
SCALARS P float 1
LOOKUP_TABLE default
100147.5698117237
100147.22061897547
100207.82156228783
100144.81434552692
100207.69375589855
100295.36318425079
100140.68244870144
100204.3533411162
100295.63680161002
100422.95160508655
100135.13752342823
100198.39815022843
100290.79075237678
100423.90909204591
100609.61594694249
100128.49385719879
100190.35759002068
100281.86698299219
100416.57065156128
100611.7126097127
100884.11077739338
100121.061462883
100180.73516745
100269.7843400306
100402.7566205578
100600.1274059971
100888.02510759619
101290.79516579758
100113.13293577118
100170.00785428329
100255.39087651203
100384.0916361599
100578.12127419189
100868.93033061402
101297.26006053356
101900.48220293674
100104.97133086907
100158.61227218113
100239.45971717064
100362.04259206164
100548.63139800733
100832.90173509078
101264.20382266426
101909.08225989032
102833.04959084578
100096.80232657534
100146.93152539931
100222.67158510166
100337.89641550409
100514.24018353969
100785.38807952755
101203.52883712186
101848.36129375915
102836.62068646865
104311.9770531309
100088.8110424015
100135.28740852996
100205.60133274423
100312.73586462955
100477.1117045972
100730.98224750838
101125.58262522913
101742.98791946338
102716.79612193472
104272.78742648578
106819.27900180624
100081.14262600755
100123.93875390645
100188.71471402419
100287.43454502478
100438.97505006137
100673.31877004432
101038.54343590017
101612.91675333571
102527.51230881191
104016.17398328197
106565.47669020364
111613.57261228962
100073.90560654714
100113.08471097727
100172.37293854478
100262.66541757234
100401.1458207802
100615.11951090858
100948.41600427902
101472.49139616867
102307.04918227193
103664.02800077542
105968.69750082275
110352.78867662353
122784.17915490826
100067.17670650613
100102.87111950511
100156.84340785115
100238.92495332044
100364.58112633915
100558.31920344474
100859.34346944567
101331.22403356215
102079.34881305657
103285.77951647807
105293.38654505927
108877.52028218049
116527.88335824938
133145.676889802
100061.00634560698
100093.39853999311
100142.313538718
100216.56009450278
100329.9386481512
100504.21859320193
100774.02401659968
101195.02559453121
101858.22691028714
102916.63420426936
104641.82099611373
107570.2798062637
112964.33733995541
123428.14815987035
141278.55049716437
100055.42425174151
100084.7306548688
100128.90524160421
100195.79668157597
100297.64130382179
100453.63459708232
100694.0937133099
101067.30289048149
101651.04852062398
102572.88672594726
104048.57837963545
106464.082159547
110565.57464779798
117820.78728726033
130035.68869028626
147887.8307935035
100050.44469852572
100076.90268598606
100116.68894106383
100176.76668652889
100267.93348807145
100407.02505627275
100620.43631304384
100949.79933519186
101461.26302200195
102260.98807695312
103521.96906690273
105532.86394901946
108787.03965569567
114191.48753297902
122968.08482264375
136062.2469841315
153349.9743952988
100046.07129728535
100069.92880798613
100105.69650887938
100159.53099188909
100240.92637949163
100364.59355545457
100553.42570420107
100843.19383436235
101290.02407424833
101982.37574592054
103060.33627279777
104746.73231797952
107394.19770506152
111614.86186369728
118242.62633765597
128079.95210003464
141458.6755264712
157894.9954533617
100042.30135706789
100063.8089555128
100095.93235886589
100144.10031933675
100216.63872439515
100326.367675184
100493.09490821192
100747.49682940754
101137.17166987692
101735.9976839681
102658.45500863678
104080.70212414763
106268.47013705339
109664.97267388177
114866.62253206145
122500.49238548649
132980.7769783432
146248.17986607988
161681.6976314084
100039.12975377805
100058.53487187401
100087.38295443638
100130.45100977841
100195.02576015604
100292.26010585658
100439.26524781363
100662.3281300809
101001.82783719728
101519.64670142569
102310.06755320614
103514.84080679323
105341.4819870576
108127.42512380659
112321.1301151662
118414.82110823778
126798.68934954557
137580.2544401911
150473.7744507812
164829.75585314084
100036.55279431859
100054.09556123879
100080.02557763123
100118.53955338695
100176.00525957311
100262.11294564405
100391.63311143448
100587.0884499782
100882.76555488858
101330.6547453185
102008.91326224167
103033.12895358022
104569.30502747557
106883.31312246805
110326.16411728857
115294.36642782531
122136.767156029
131020.34750565112
141836.6279317524
154182.97153763805
167434.2202108772
100034.57260794246
100050.48282679518
100073.83569492036
100108.3132297137
100159.4741665871
100235.7315453317
100349.83130844061
100521.07498998668
100778.61805713525
101166.26308297718
101749.1679855731
102622.53642321452
103921.43961047169
105860.09932264812
108721.2239408978
112832.25540265274
118503.88530344359
125927.52680587738
135086.7640083761
145735.04813456416
157422.6313816285
169573.85493508822
100033.20304652509
100047.69799779604
100068.79496200224
100099.72151746845
100145.32620042888
100212.90951044946
100313.47071834657
100463.56101584352
100688.00733464974
101023.8207228243
101525.58451546817
102272.32825180287
103375.29519531752
105009.71528108124
107407.66930851908
110844.21804394574
115597.22322139787
121868.8715382391
129703.00878232761
138947.27667535597
149276.18814539345
160237.60153018523
171315.91518809984
100032.47968938157
100045.76165968276
100064.90130774975
100092.72658406565
100133.46436575583
100193.44826221159
100282.17123057791
100413.83781216046
100609.62315745454
100900.8828880477
101333.532378154
101973.5910309246
102913.50200120472
104298.14404199041
106320.28221689958
109213.52872934447
113226.5379003475
118564.35710002857
125314.94589892283
133398.2828490452
142570.7537272216
152470.6777566977
162670.4652055405
172719.00849420435
100044.73063298433
100062.18385960242
100087.318059533
100123.81691292656
100177.17419488255
100255.58523924727
100371.25150470667
100542.2619597908
100795.24665711986
101168.97268330553
101718.88767183475
102522.34712163928
103700.00411432683
105413.30705283131
107861.77765121133
111267.31650953167
115831.80390284912
121674.91251819294
128777.61275494767
136964.90656694397
145939.53245119276
155334.10075925398
164760.99815080428
173831.7131904913
100060.72912370072
100083.53467658916
100116.35638142203
100163.95859575021
100233.41839786887
100335.22454220742
100484.85298306575
100704.9745165851
101028.42949374672
101501.98897623704
102190.75545673391
103195.76605633652
104652.98185242311
106733.29167168037
109633.86199722694
113548.37933816643
118617.2873367475
124872.17802707414
132202.5892689604
140367.67124506945
149046.1134872469
157885.7742135357
166545.69614612492
174698.9822711981
100081.50236609699
100111.13112692242
100153.74382234356
100215.45130327255
100305.27638404595
100436.47767870277
100628.39565127566
100908.93241244955
101317.69337664156
101909.71834167435
102769.99978436065
104013.46595167494
105786.70665732426
108264.05038760992
111627.42830433867
116028.26296179021
121537.53098626275
128104.18924163934
135545.9535468757
143582.35185100866
151890.17696887453
160146.345278919
168059.29431118447
175354.90619090453
100108.3180898274
100146.58567266767
100201.57604439104
100281.05224476205
100396.38518671136
100564.1045516455
100807.97871529742
101161.65620517946
101671.85571500927
102410.32837373743
103474.5111487572
104990.26014329652
107110.96616449958
110004.57556606598
113825.6119930119
118673.0584152277
124547.02933984414
131324.6815328267
138772.75479804826
146593.3786637126
154476.76350551166
162137.70171593854
169330.25689220594
175833.4438480915
100142.72645711273
100191.85140579884
100262.36457724159
100364.02156048674
100510.96937444566
100723.49951293632
101030.28297179459
101471.11035179372
102106.72923698662
103019.96522049404
104318.92521390184
106137.99537783826
108630.1812181436
111947.04509410696
116205.26079406988
121445.9294017715
127602.22627127366
134493.94443340207
141856.3555931121
149391.95347917135
156814.57589416648
163880.66713742886
170388.2635905307
176159.4500525902
100186.60329782368
100249.26859282279
100339.08255365293
100468.15962251463
100653.85085704333
100920.64300055784
101302.52212245854
101851.06973987598
102636.81805108597
103752.65789592145
105315.98465459104
107464.62980849804
110343.1670704888
114077.33550598288
118738.5244061322
124308.87976488817
130662.92019712829
137578.55286116424
144777.03954178112
151973.71926380796
158914.2737212041
165395.26760557498
171255.82685957328
176359.6802098634
100242.19552272023
100321.60885173002
100435.2046723191
100597.82880476819
100830.4313339941
101162.10111658147
101636.74149553932
102314.52257620815
103275.2856180909
104621.3308905398
106475.78221412995
108973.70222049093
112243.16327978398
116376.05093452436
121394.39394308502
127224.46759949176
133692.86320031324
140551.0983587334
147520.9170629419
154339.4400670292
160787.8552513078
166701.14980254145
171956.33148918964
176448.88749459453
100312.16470347055
100412.11764969851
100554.73873050786
100757.9603934913
101046.7220857003
101458.44713419212
102044.54865812318
102873.68026199221
104034.81547546992
105637.208532206
107805.05814362127
110664.02149965684
114318.06174581466
118819.48583380911
124140.13685266698
130156.7470884417
136660.20169048785
143390.04975614467
150078.9568434496
156491.9262799832
162447.45910740376
167816.48591424065
172508.0103605135
176450.22750969682
100399.63123627017
100524.55306155357
100702.25193181187
100954.10770336038
101312.06403112541
101820.08457567268
102537.21153589232
103540.70403123202
104927.03738318772
106809.05357103705
109306.724081564
112529.5519262835
116551.09239188215
121380.75135506681
126942.5769789994
133072.3857944367
139537.6235582491
146077.5103126194
152445.25549697032
158436.9497743773
163906.1307486391
168757.56314912063
172928.90605471196
176374.61216895582
100508.21554197381
100663.22295660528
100882.93435102445
101194.6111100274
101635.83328223115
102257.3722700156
103126.21675285525
104327.21960287985
105961.94168729098
108142.69393100837
110979.56063737097
114559.66409247958
118921.45921049047
124030.85620493154
129769.0918590727
135940.4338569427
142301.97571181974
148601.5529135317
154617.7070194532
160180.15126589584
165175.5831843469
169538.67438759323
173233.97745126783
176240.7108640323
100642.08351031794
100833.05958497385
101104.34227307943
101487.97466999199
102027.5487812468
102781.06463904284
103822.87577904997
105243.75327159594
107147.27793516891
109640.55675258218
112818.06201697592
116739.35362156766
121405.17179947929
126739.65627301083
132588.3263158461
138734.24892966606
144933.21605973353
150951.2944707615
156595.26701468456
161727.5550199425
166266.8348038519
170174.05694700923
173438.76789867735
176066.92977074857
100806.02453683814
101041.0489661661
101374.27599550351
101842.98056319031
102497.2466119325
103402.01358524877
104637.90303876765
106299.30283877395
108488.09141339124
111301.2493182069
114812.48609871422
119049.85676823968
123975.72143249075
129476.7222028483
135370.08128991033
141428.85394749942
147415.81617439463
153119.67716180917
158378.338788746
163085.7519410724
167189.30020029287
170675.58136961274
173558.54980679543
175887.96987091826
101006.71147160347
101294.48490798319
101700.90823887169
102268.99700622245
103055.22451381212
104130.79269362363
105580.91375394106
107500.73435382365
109986.25350857455
113119.53282563451
116948.94968476951
121469.03130139518
126605.08246071367
132211.55938842607
138086.9251629973
144002.01128027658
149734.83973151844
155100.6825216141
159967.38477660247
164259.6681963805
167951.49805836135
171054.16278321255
173613.92398252594
175747.4628279833
101251.14067859303
101601.08075842012
102093.03598279598
102775.77825377652
103711.7766693654
104977.29388381993
106659.95687384435
108852.29785195619
111640.12295347571
115086.01040993446
119209.83591868957
123971.62489032786
129263.58238412246
134914.66102429078
140712.55165127528
146434.41339584917
151878.57447123568
156888.55400420068
161361.9984497029
165252.25860986277
168558.35436752503
171317.80140046834
173625.63611445588
101546.76890379336
101969.18098000665
102559.9030255056
103373.21748965504
104476.77987461431
105950.27379574423
107881.03858416936
110355.21746206695
113444.23923786858
117187.34043475652
121573.94432808722
126531.05661469218
131921.52876806716
137556.98260991162
143222.40324237992
148707.61322528668
153834.86326468483
158476.20740537817
162559.03058490978
166062.13038945582
169007.36813858943
171465.08754332727
101901.67641092405
102407.63257868505
103111.00412941581
104071.04135387238
105359.31135725051
107056.83845540813
109247.50960294547
112007.29458792447
115389.22712684257
119406.33987379154
124017.02200365346
129117.7899068029
134548.27974337325
140110.2390447537
145592.56920222632
150803.3533202857
155590.77647528425
159855.35426383428
163550.04486508065
166676.2969317039
169275.14939700236
102324.45731459156
102925.58048839273
103755.81214165957
104878.40771559358
106367.20945290438
108301.94834127939
110759.72531520619
113802.4750251234
117461.31764566206
121721.60155768998
126511.38089838563
131700.73487241473
137112.7888234638
142545.59045356762
147798.8611419182
152702.34897302988
157130.17440795348
161008.84743907553
164312.45680354492
167051.2228847629
102824.05314252223
103532.23931201985
104503.42717959962
105803.51050277308
107506.52096832475
109687.94828423653
112414.55314854323
115730.7527617903
119643.1694051668
124108.5123839953
129027.30937068255
134247.8169651899
139582.99140684956
144833.61093582714
149815.6403106967
154380.87159978724
158428.78029357933
161903.67730558664
164782.85578739856
103409.49560950648
104236.59051500098
105362.18966557183
106853.12084993071
108780.99658285762
111213.9633120772
114204.91766389745
117777.44989257703
121912.61630227847
126538.86030882935
131531.82076750524
136724.39516368182
141924.92714663935
146942.8902739257
151612.41360466936
155806.87117623334
159442.11291529465
162459.37922571556
104089.65081729775
105046.99116235453
106339.259711148
108031.98048454698
110191.58443287876
112875.47431856573
116119.30261873025
119923.75497052113
124243.04074547131
128979.5257461293
133988.99060942626
139092.87155411553
144101.29743136835
148835.95940485952
153148.6350232
156925.65752125613
160073.70420566812
104872.85689508943
105970.75638042267
107440.01797402189
109342.28047168294
111735.60768587122
114663.502747462
118141.54450365495
122145.58840436551
126603.51839859529
131394.85499608354
136358.4970480583
141311.18289076997
146068.27777749544
150463.8701904542
154358.3854457205
157623.60523360863
105766.47320132739
107013.67077919368
108667.57716696986
110783.09936736012
113406.74066579709
116564.6324679706
120250.14880635294
124413.52937322197
128957.77957773214
133742.11151280755
138594.1276582759
143329.44904818377
147769.21807577257
151750.88098904173
155114.13561199233
106776.42305037292
108179.37254868087
110022.14987422572
112349.61913667928
115193.48409150273
118559.72171231646
122417.84572200317
126692.1696102996
131263.109601789
135973.12986381957
140642.11268770022
145083.95776596174
149118.70943279014
152555.47412871625
107906.63455533692
109468.76877367857
111500.08466291052
114032.24795007787
117078.92736617268
120623.58356813365
124610.34428568711
128938.9733885371
133469.23444222342
138029.19861960426
142431.38446583776
146481.36141325854
149962.93792178234
109158.32323394241
110879.23688958857
113093.64486342581
115816.4627762649
119040.11477252912
122723.86436071666
126785.88743786568
131102.6083074794
135514.03775042316
139834.83155765288
143860.8858778731
147355.87757462845
110529.41806020959
112403.8820529803
114789.42703300988
117680.68099767253
121046.4812930663
124819.89460797214
128893.12780299925
133119.33171265287
137318.24319231772
141281.70694789893
144756.5387047621
112013.55613324705
114030.6498371497
116567.88580083006
119596.42201709734
123058.83175298058
126860.59739679095
130867.22674009613
134906.64008968702
138768.92458666724
142189.2860892883
113599.32538123342
115741.15208867042
118401.89334688507
121525.901422984
125027.00609534388
128780.95513379629
132623.7320890332
136347.34595432706
139678.98953940504
115269.02080497654
117509.47164808094
120255.20284393043
123420.09585907983
126886.15974390238
130495.75860655401
134043.35146181157
137252.01104997797
116997.39115153653
119300.52489760729
122079.92551143066
125215.45892310672
128551.33906783393
131884.70324457518
134935.2709220314
118750.16715164672
121067.81956882046
123814.0272203509
126827.50254221816
129902.96765917195
132757.69298618924
120481.64958230543
122750.05575212934
125373.84909663616
128137.45267410693
130752.42868080623
122131.32200300506
124265.27937631142
126642.79504274078
128960.97775537132
123618.15903358748
125498.70409974067
127439.95421277742
124828.58171470361
126273.01275721012
125588.24217128819
SCALARS T float 1
LOOKUP_TABLE default
300.1273750231241
300.1270538022151
300.1798661065913
300.1249507279025
300.1797110870653
300.25656327900134
300.1213527556389
300.1767646549614
300.2567010835581
300.3691672942045
300.1165319822889
300.1715454554927
300.25237208147075
300.3697791764289
300.53545833362256
300.11076245955803
300.1645161933215
300.24448386213624
300.3631151000965
300.53679931791163
300.7828746669006
300.1043143875711
300.1561182488713
300.23384419979317
300.3507703135339
300.52606413908194
300.7852215199374
301.1546679521171
300.0974423725241
300.1467696261792
300.22120141538784
300.33418405186296
300.5061342950139
300.7671099156202
301.1579496496889
301.7211092155512
300.0903747927619
300.1368521480507
300.2072374330403
300.3146609309995
300.47963626604223
300.73396482946123
301.12581262873636
301.72333828258
302.60174802505276
300.08330703759054
300.1266997549458
300.1925508967439
300.2933443633743
300.44888750657407
300.69071086148347
301.06901471782857
301.6629755079869
302.5929298769771
304.01484736778224
300.07639886888717
300.11659183020174
300.1776450344912
300.27119230149174
300.41582591778945
300.6415094993577
300.9970117452429
301.5625888461457
302.4721184910918
303.9537009682433
306.40356865936985
300.0697750849207
300.10675204523517
300.1629252242344
300.24897266584395
300.3819904730069
300.5896410983647
300.9172833171999
301.4405930531941
302.2890950086832
303.69528401332917
306.12515464377066
310.80655551185544
300.06352857852653
300.0973515514161
300.14870367739036
300.22727205984114
300.3485413460523
300.5375407638287
300.8352864991767
301.3102075624726
302.07940810807395
303.35215873190447
305.5380650983529
309.63298797877127
320.0580179186689
300.0577246333922
300.0885148395258
300.13520957511906
300.20651872017004
300.31631218344603
300.48691626014556
300.7547383909822
301.1801142731024
301.8652186467478
302.98883947787436
304.88342421018945
308.25248220009007
315.0571612851556
328.1120730366061
300.0524057868831
300.08032697538755
300.12260180079886
300.18700784835465
300.28586633667476
300.43889387742234
300.67801055567935
301.0556041847033
301.6591301981429
302.6379353807995
304.256347767988
307.01377007378505
311.9596306427142
320.85136914752667
334.1807921382744
300.04759675192093
300.0728410841843
300.11098207601174
300.16892788331984
300.257557438451
300.3941609099192
300.6064948655323
300.9396230920957
301.467645141094
302.3141947284227
303.6893444822918
305.9589808154262
309.7731497377493
316.23065224958214
326.1757490654153
338.97732388091407
300.04330898611056
300.06608577801205
300.1004075280117
300.15238531647356
300.2315815683592
300.3530833416576
300.54089896076977
300.83357801375263
301.29358686278226
302.02301885984684
303.1898450680157
305.07070671331945
308.1114484025235
313.04694245636585
320.60948375415563
330.86247273311
342.85745774582375
300.03954485238467
300.0600716532941
300.0909021623397
300.1374252294472
300.2080188280177
300.31580341066206
300.4814754687388
300.7379101060724
301.137658216769
301.765082813527
302.7555163731367
304.3235252182099
306.79604248550174
310.69970259714114
316.6158311890629
324.81600167043774
334.93277016142525
346.0300052224921
300.03630138855385
300.0547972176311
300.08246661740645
300.1240499138891