# vtk DataFile Version 2.0
JuliaCFD
ASCII
DATASET UNSTRUCTURED_GRID

POINTS 1900 float
0.0 0.0 0.005
0.0 0.0416667 0.005
0.0 0.0833333 0.005
0.0 0.125 0.005
0.0 0.166667 0.005
0.0 0.208333 0.005
0.0 0.25 0.005
0.0 0.291667 0.005
0.0 0.333333 0.005
0.0 0.375 0.005
0.0 0.416667 0.005
0.0 0.458333 0.005
0.0 0.5 0.005
0.0 0.541667 0.005
0.0 0.583333 0.005
0.0 0.625 0.005
0.0 0.666667 0.005
0.0 0.708333 0.005
0.0 0.75 0.005
0.0 0.791667 0.005
0.0 0.833333 0.005
0.0 0.875 0.005
0.0 0.916667 0.005
0.0 0.958333 0.005
0.0 1.0 0.005
0.0409575 0.0 0.005
0.0409401 0.0416667 0.005
0.0409227 0.0833333 0.005
0.0409054 0.125 0.005
0.040888 0.166667 0.005
0.0408706 0.208333 0.005
0.0408532 0.25 0.005
0.0408359 0.291667 0.005
0.0408185 0.333333 0.005
0.0408011 0.375 0.005
0.0407838 0.416667 0.005
0.0407664 0.458333 0.005
0.040749 0.5 0.005
0.0407316 0.541667 0.005
0.0407143 0.583333 0.005
0.0406969 0.625 0.005
0.0406795 0.666667 0.005
0.0406621 0.708333 0.005
0.0406448 0.75 0.005
0.0406274 0.791667 0.005
0.04061 0.833333 0.005
0.0405927 0.875 0.005
0.0405753 0.916667 0.005
0.0405579 0.958333 0.005
0.0405405 1.0 0.005
0.0819149 0.0 0.005
0.0818802 0.0416667 0.005
0.0818455 0.0833333 0.005
0.0818107 0.125 0.005
0.081776 0.166667 0.005
0.0817412 0.208333 0.005
0.0817065 0.25 0.005
0.0816717 0.291667 0.005
0.081637 0.333333 0.005
0.0816022 0.375 0.005
0.0815675 0.416667 0.005
0.0815328 0.458333 0.005
0.081498 0.5 0.005
0.0814633 0.541667 0.005
0.0814285 0.583333 0.005
0.0813938 0.625 0.005
0.081359 0.666667 0.005
0.0813243 0.708333 0.005
0.0812895 0.75 0.005
0.0812548 0.791667 0.005
0.0812201 0.833333 0.005
0.0811853 0.875 0.005
0.0811506 0.916667 0.005
0.0811158 0.958333 0.005
0.0810811 1.0 0.005
0.122872 0.0 0.005
0.12282 0.0416667 0.005
0.122768 0.0833333 0.005
0.122716 0.125 0.005
0.122664 0.166667 0.005
0.122612 0.208333 0.005
0.12256 0.25 0.005
0.122508 0.291667 0.005
0.122455 0.333333 0.005
0.122403 0.375 0.005
0.122351 0.416667 0.005
0.122299 0.458333 0.005
0.122247 0.5 0.005
0.122195 0.541667 0.005
0.122143 0.583333 0.005
0.122091 0.625 0.005
0.122039 0.666667 0.005
0.121986 0.708333 0.005
0.121934 0.75 0.005
0.121882 0.791667 0.005
0.12183 0.833333 0.005
0.121778 0.875 0.005
0.121726 0.916667 0.005
0.121674 0.958333 0.005
0.121622 1.0 0.005
0.16383 0.0 0.005
0.16376 0.0416667 0.005
0.163691 0.0833333 0.005
0.163621 0.125 0.005
0.163552 0.166667 0.005
0.163482 0.208333 0.005
0.163413 0.25 0.005
0.163343 0.291667 0.005
0.163274 0.333333 0.005
0.163204 0.375 0.005
0.163135 0.416667 0.005
0.163066 0.458333 0.005
0.162996 0.5 0.005
0.162927 0.541667 0.005
0.162857 0.583333 0.005
0.162788 0.625 0.005
0.162718 0.666667 0.005
0.162649 0.708333 0.005
0.162579 0.75 0.005
0.16251 0.791667 0.005
0.16244 0.833333 0.005
0.162371 0.875 0.005
0.162301 0.916667 0.005
0.162232 0.958333 0.005
0.162162 1.0 0.005
0.204787 0.0 0.005
0.2047 0.0416667 0.005
0.204614 0.0833333 0.005
0.204527 0.125 0.005
0.20444 0.166667 0.005
0.204353 0.208333 0.005
0.204266 0.25 0.005
0.204179 0.291667 0.005
0.204092 0.333333 0.005
0.204006 0.375 0.005
0.203919 0.416667 0.005
0.203832 0.458333 0.005
0.203745 0.5 0.005
0.203658 0.541667 0.005
0.203571 0.583333 0.005
0.203484 0.625 0.005
0.203398 0.666667 0.005
0.203311 0.708333 0.005
0.203224 0.75 0.005
0.203137 0.791667 0.005
0.20305 0.833333 0.005
0.202963 0.875 0.005
0.202876 0.916667 0.005
0.20279 0.958333 0.005
0.202703 1.0 0.005
0.245745 0.0 0.005
0.245641 0.0416667 0.005
0.245536 0.0833333 0.005
0.245432 0.125 0.005
0.245328 0.166667 0.005
0.245224 0.208333 0.005
0.245119 0.25 0.005
0.245015 0.291667 0.005
0.244911 0.333333 0.005
0.244807 0.375 0.005
0.244703 0.416667 0.005
0.244598 0.458333 0.005
0.244494 0.5 0.005
0.24439 0.541667 0.005
0.244286 0.583333 0.005
0.244181 0.625 0.005
0.244077 0.666667 0.005
0.243973 0.708333 0.005
0.243869 0.75 0.005
0.243764 0.791667 0.005
0.24366 0.833333 0.005
0.243556 0.875 0.005
0.243452 0.916667 0.005
0.243347 0.958333 0.005
0.243243 1.0 0.005
0.286702 0.0 0.005
0.286581 0.0416667 0.005
0.286459 0.0833333 0.005
0.286337 0.125 0.005
0.286216 0.166667 0.005
0.286094 0.208333 0.005
0.285973 0.25 0.005
0.285851 0.291667 0.005
0.285729 0.333333 0.005
0.285608 0.375 0.005
0.285486 0.416667 0.005
0.285365 0.458333 0.005
0.285243 0.5 0.005
0.285121 0.541667 0.005
0.285 0.583333 0.005
0.284878 0.625 0.005
0.284757 0.666667 0.005
0.284635 0.708333 0.005
0.284513 0.75 0.005
0.284392 0.791667 0.005
0.28427 0.833333 0.005
0.284149 0.875 0.005
0.284027 0.916667 0.005
0.283905 0.958333 0.005
0.283784 1.0 0.005
0.32766 0.0 0.005
0.327521 0.0416667 0.005
0.327382 0.0833333 0.005
0.327243 0.125 0.005
0.327104 0.166667 0.005
0.326965 0.208333 0.005
0.326826 0.25 0.005
0.326687 0.291667 0.005
0.326548 0.333333 0.005
0.326409 0.375 0.005
0.32627 0.416667 0.005
0.326131 0.458333 0.005
0.325992 0.5 0.005
0.325853 0.541667 0.005
0.325714 0.583333 0.005
0.325575 0.625 0.005
0.325436 0.666667 0.005
0.325297 0.708333 0.005
0.325158 0.75 0.005
0.325019 0.791667 0.005
0.32488 0.833333 0.005
0.324741 0.875 0.005
0.324602 0.916667 0.005
0.324463 0.958333 0.005
0.324324 1.0 0.005
0.368617 0.0 0.005
0.368461 0.0416667 0.005
0.368305 0.0833333 0.005
0.368148 0.125 0.005
0.367992 0.166667 0.005
0.367835 0.208333 0.005
0.367679 0.25 0.005
0.367523 0.291667 0.005
0.367366 0.333333 0.005
0.36721 0.375 0.005
0.367054 0.416667 0.005
0.366897 0.458333 0.005
0.366741 0.5 0.005
0.366585 0.541667 0.005
0.366428 0.583333 0.005
0.366272 0.625 0.005
0.366116 0.666667 0.005
0.365959 0.708333 0.005
0.365803 0.75 0.005
0.365647 0.791667 0.005
0.36549 0.833333 0.005
0.365334 0.875 0.005
0.365178 0.916667 0.005
0.365021 0.958333 0.005
0.364865 1.0 0.005
0.409575 0.0 0.005
0.409401 0.0416667 0.005
0.409227 0.0833333 0.005
0.409054 0.125 0.005
0.40888 0.166667 0.005
0.408706 0.208333 0.005
0.408532 0.25 0.005
0.408359 0.291667 0.005
0.408185 0.333333 0.005
0.408011 0.375 0.005
0.407838 0.416667 0.005
0.407664 0.458333 0.005
0.40749 0.5 0.005
0.407316 0.541667 0.005
0.407143 0.583333 0.005
0.406969 0.625 0.005
0.406795 0.666667 0.005
0.406621 0.708333 0.005
0.406448 0.75 0.005
0.406274 0.791667 0.005
0.4061 0.833333 0.005
0.405927 0.875 0.005
0.405753 0.916667 0.005
0.405579 0.958333 0.005
0.405405 1.0 0.005
0.450532 0.0 0.005
0.450341 0.0416667 0.005
0.45015 0.0833333 0.005
0.449959 0.125 0.005
0.449768 0.166667 0.005
0.449577 0.208333 0.005
0.449386 0.25 0.005
0.449195 0.291667 0.005
0.449003 0.333333 0.005
0.448812 0.375 0.005
0.448621 0.416667 0.005
0.44843 0.458333 0.005
0.448239 0.5 0.005
0.448048 0.541667 0.005
0.447857 0.583333 0.005
0.447666 0.625 0.005
0.447475 0.666667 0.005
0.447284 0.708333 0.005
0.447093 0.75 0.005
0.446901 0.791667 0.005
0.44671 0.833333 0.005
0.446519 0.875 0.005
0.446328 0.916667 0.005
0.446137 0.958333 0.005
0.445946 1.0 0.005
0.49149 0.0 0.005
0.491281 0.0416667 0.005
0.491073 0.0833333 0.005
0.490864 0.125 0.005
0.490656 0.166667 0.005
0.490447 0.208333 0.005
0.490239 0.25 0.005
0.49003 0.291667 0.005
0.489822 0.333333 0.005
0.489613 0.375 0.005
0.489405 0.416667 0.005
0.489197 0.458333 0.005
0.488988 0.5 0.005
0.48878 0.541667 0.005
0.488571 0.583333 0.005
0.488363 0.625 0.005
0.488154 0.666667 0.005
0.487946 0.708333 0.005
0.487737 0.75 0.005
0.487529 0.791667 0.005
0.48732 0.833333 0.005
0.487112 0.875 0.005
0.486903 0.916667 0.005
0.486695 0.958333 0.005
0.486486 1.0 0.005
0.531954 0.00563435 0.005
0.531749 0.0470663 0.005
0.531544 0.0884982 0.005
0.531338 0.12993 0.005
0.531133 0.171362 0.005
0.530928 0.212794 0.005
0.530722 0.254226 0.005
0.530517 0.295658 0.005
0.530312 0.33709 0.005
0.530107 0.378521 0.005
0.529901 0.419953 0.005
0.529696 0.461385 0.005
0.529491 0.502817 0.005
0.529285 0.544249 0.005
0.52908 0.585681 0.005
0.528875 0.627113 0.005
0.528669 0.668545 0.005
0.528464 0.709977 0.005
0.528259 0.751409 0.005
0.528054 0.79284 0.005
0.527848 0.834272 0.005
0.527643 0.875704 0.005
0.527438 0.917136 0.005
0.527232 0.958568 0.005
0.527027 1.0 0.005
0.572289 0.0127465 0.005
0.572093 0.0538821 0.005
0.571896 0.0950177 0.005
0.571699 0.136153 0.005
0.571502 0.177289 0.005
0.571306 0.218424 0.005
0.571109 0.25956 0.005
0.570912 0.300695 0.005
0.570715 0.341831 0.005
0.570519 0.382967 0.005
0.570322 0.424102 0.005
0.570125 0.465238 0.005
0.569928 0.506373 0.005
0.569732 0.547509 0.005
0.569535 0.588644 0.005
0.569338 0.62978 0.005
0.569142 0.670916 0.005
0.568945 0.712051 0.005
0.568748 0.753187 0.005
0.568551 0.794322 0.005
0.568355 0.835458 0.005
0.568158 0.876593 0.005
0.567961 0.917729 0.005
0.567764 0.958864 0.005
0.567568 1.0 0.005
0.612625 0.0198587 0.005
0.612436 0.0606979 0.005
0.612248 0.101537 0.005
0.61206 0.142376 0.005
0.611872 0.183216 0.005
0.611684 0.224055 0.005
0.611496 0.264894 0.005
0.611307 0.305733 0.005
0.611119 0.346572 0.005
0.610931 0.387412 0.005
0.610743 0.428251 0.005
0.610555 0.46909 0.005
0.610366 0.509929 0.005
0.610178 0.550769 0.005
0.60999 0.591608 0.005
0.609802 0.632447 0.005
0.609614 0.673286 0.005
0.609425 0.714125 0.005
0.609237 0.754965 0.005
0.609049 0.795804 0.005
0.608861 0.836643 0.005
0.608673 0.877482 0.005
0.608484 0.918322 0.005
0.608296 0.959161 0.005
0.608108 1.0 0.005
0.65296 0.0269708 0.005
0.65278 0.0675137 0.005
0.652601 0.108057 0.005
0.652421 0.148599 0.005
0.652241 0.189142 0.005
0.652062 0.229685 0.005
0.651882 0.270228 0.005
0.651702 0.310771 0.005
0.651523 0.351314 0.005
0.651343 0.391857 0.005
0.651164 0.4324 0.005
0.650984 0.472943 0.005
0.650804 0.513485 0.005
0.650625 0.554028 0.005
0.650445 0.594571 0.005
0.650265 0.635114 0.005
0.650086 0.675657 0.005
0.649906 0.7162 0.005
0.649726 0.756743 0.005
0.649547 0.797286 0.005
0.649367 0.837828 0.005
0.649188 0.878371 0.005
0.649008 0.918914 0.005
0.648828 0.959457 0.005
0.648649 1.0 0.005
0.693295 0.034083 0.005
0.693124 0.0743295 0.005
0.692953 0.114576 0.005
0.692782 0.154823 0.005
0.692611 0.195069 0.005
0.69244 0.235316 0.005
0.692269 0.275562 0.005
0.692098 0.315809 0.005
0.691926 0.356055 0.005
0.691755 0.396302 0.005
0.691584 0.436548 0.005
[...]
CELL_DATA 888
SCALARS P float 1
LOOKUP_TABLE default
100001.71275941611
100001.65266096627
100003.39654400229
100001.49834712477
100003.2854204964
100007.57642928149
100001.28248432775
100002.97763536878
100007.33800144034
100017.04545631574
100001.03969948225
100002.54382969296
100006.63934764029
100016.52318506228
100037.57050137309
100000.80048759501
100002.05676445694
100005.6519062789
100014.911627294
100036.43482268638
100080.70373177937
100000.58674528425
100001.57892646074
100004.54880300551
100012.6348457464
100032.75855180752
100078.23304305342
100169.17463971624
100000.41035097587
100001.15405758118
100003.4745942732
100010.11070486705
100027.58797999469
100069.9513601309
100163.66012115419
100347.57935834127
100000.27437356544
100000.80507787922
100002.52703670377
100007.67621920454
100021.9189806344
100058.43103723964
100145.11661323311
100334.48194506459
100705.24136730884
100000.17570941921
100000.53717677787
100001.75468220844
100005.5497451467
100016.51946532085
100046.00345116813
100119.87655094198
100292.78611045291
100670.78802975488
101431.18739467658
100000.10794895461
100000.34345991578
100001.16589268179
100003.83231503612
100011.85990748923
100034.36037736565
100093.28295481754
100238.17534817551
100575.39572232234
101328.03944592981
102967.76232851794
100000.06371502316
100000.21077743985
100000.74274137136
100002.5338350621
100008.13786449721
100024.46417710118
100068.90595637492
100182.55817130979
100458.13990358479
101102.83424759313
102613.63254379574
106515.95516273192
100000.03617731565
100000.1243323124
100000.45441860321
100001.6072933401
100005.35056362719
100016.66313982298
100048.57675718387
100133.026247001
100344.36240460438
100852.06899385953
102059.67834747655
105123.63449292116
116010.75132207852
100000.01978425364
100000.07058489772
100000.26738126841
100000.9797943192
100003.37784828906
100010.88662001479
100032.8054900012
100092.68596318676
100246.78376003691
100624.5950855
101526.26003539501
103716.2503007494
109712.21701909347
124567.9641339868
100000.01043182607
100000.03861063276
100000.15149695637
100000.57478145655
100002.0508826416
100006.83620315563
100021.27960251979
100061.98322816659
100169.604847916
100438.74145888694
101084.27144972149
102606.59819017178
106276.07898256529
114805.62681138897
130903.18174718415
100000.00530878427
100000.02037118719
100000.08274740855
100000.32487615851
100001.19916474585
100004.13241617613
100013.28359033239
100039.88459695771
100112.17517015367
100296.84685539671
100744.20079091603
101785.58460728059
104148.26104528115
109354.54434567146
119469.76599386115
135750.83621118756
100000.0026099304
100000.01037664092
100000.04361221401
100000.17710749728
100000.67600212038
100002.40766332131
100007.9913227181
100024.73684911846
100071.54958849188
100193.96667868741
100494.99308330636
101195.77486405971
102746.53695455333
106059.59006282128
112520.10183050475
123476.98637856233
139528.28290747723
100000.00124060665
100000.00510755977
100000.02220032025
100000.09320906017
100000.36776137166
100001.35343098055
100004.63822078168
100014.80525459955
100044.07008341332
100122.57232796028
100319.38422676355
100781.94435869613
101800.89034542495
103952.89099772027
108157.34768011268
115499.60026392086
126834.27398284755
142504.41821549198
100000.00057065139
100000.00243131055
100000.01092378054
100000.04739715256
100000.19324387734
100000.73468795045
100002.59952223598
100008.5584752443
100026.23502512624
100074.96166041197
100199.95021759988
100498.53887447318
101161.49704573708
102565.39201334963
105328.9568431063
110261.90808891773
118169.60003557973
129613.66667252596
144868.81641886022
100000.00025421326
100000.00112016096
100000.0051997357
100000.0233053973
100000.0981521912
100000.38541321416
100001.40788400214
100004.78179724464
100015.10334693316
100044.38505391817
100121.4439019259
100309.4745481332
100733.66919559003
101643.15002722245
103459.04726834016
106772.38245428952
112252.32624981004
120492.34381385165
131900.59085021954
146760.91453617785
100000.0001097973
100000.00049989297
100000.00239613191
100000.01108897453
100000.04822483081
100000.19552811042
100000.73731252052
100002.58377648599
100008.41241867219
100025.44979394371
100071.54502280882
100186.83663379161
100452.5460723955
101033.18304936089
102215.75406267156
104426.68724151891
108195.90444485677
114061.83050115273
122475.12922254276
133776.39722113844
148284.31820015237
100000.00004614459
100000.00021631339
100000.00106976305
100000.00510925376
100000.02293514299
100000.09599133067
100000.37360403217
100001.35084078224
100004.53519079462
100014.13370638518
100040.87385270146
100109.60550935878
100272.04169036799
100635.47045089325
101393.7725552062
102850.43692120472
105412.44351609633
109537.6551509705
115661.06086770113
124146.07804679505
135312.20590312718
149516.70504396257
100000.00001931543
100000.00009107406
100000.00046317367
100000.00228121667
100000.01056532633
100000.04563098747
100000.1832711269
100000.68368796576
100002.36727577297
100007.60370609183
100022.64192889605
100062.43857713825
100159.14519262071
100381.38110585253
100857.9345551865
101800.7302442616
103513.69229467081
106369.78307654918
110760.08734112344
117045.3359500962
125541.45326531489
136568.02970601624
150517.07534515797
100000.00000943654
100000.00003815745
100000.00019513226
100000.00098793686
100000.0047173677
100000.02101632791
100000.08708238248
100000.33513461119
100001.19685854856
100003.9635052651
100012.16070513333
100034.5245377058
100090.51069743176
100222.95887953108
100515.49979737324
101112.650192226
102234.76238463855
104173.90555800703
107265.1347215651
111845.45008946954
118225.31294000044
126699.01220676894
137594.1226057106
151331.34140906885
100000.00001859803
100000.00008177554
100000.00041634771
100000.00204339088
100000.00938405363
100000.04010103656
100000.15918100084
100000.58633093565
100002.002240867
100006.33261093423
100018.52419331759
100050.0108350206
100126.81374969124
100301.8248080339
100670.91777860824
101388.8812531253
102675.75983407849
104805.49640723557
108078.0188715129
112789.60059106423
119219.77892916893
127654.5155112483
138432.38782478753
151994.45698867616
100000.00003980739
100000.00017449123
100000.00086139013
100000.00406570529
100000.01790719645
100000.07329720432
100000.27842757657
100000.98051756367
100003.19768307221
100009.64320246995
100026.83422578315
100070.11742526028
100171.98807969493
100394.16653581662
100841.84947035738
101674.46967046942
103105.93752351888
105390.43235423019
108798.817015864
113598.2683611195
120051.07283778634
128441.4471600147
139117.78055719766
152535.9998301376
100000.00008484654
100000.00036102
100000.00171443114
100000.0077605257
100000.03273638959
100000.12821495638
100000.46562092174
100001.56600745968
100004.8705157628
100013.9788056647
100037.66845285366
100095.29796773511
100225.36515533927
100496.96185371547
101021.22562793677
101957.81507924788
103511.51044523009
105918.22903420785
109426.28620039429
114283.36965074654
120742.7502484901
129089.6903636654
139681.5999704317
152980.76208454018
100000.000175352
100000.00071859155
100000.00327368644
100000.01419240505
100000.05728317786
100000.21448912619
100000.74397951126
100002.3869236663
100007.06915321613
100019.65534318738
100051.31801960875
100125.29819001275
100285.42674830205
100606.25249993982
101201.8543923233
102229.23548242812
103883.35618275215
106384.75220715243
109965.07699513386
114859.91563351465
121317.85310523746
129626.60200500677
140146.900217971
153348.67190796474
100000.0003486584
100000.00137232011
100000.00598972743
100000.02484756071
100000.09588546828
100000.3429775192
100001.13524570949
100003.47056930837
100009.96030351013
100026.84801597937
100067.70592279514
100159.38355496059
100350.02972331936
100717.77963626709
101377.38812654515
102481.76393607317
104216.76131166541
106790.88102675269
110423.9826577278
115344.58934080056
121798.33122971759
130075.46641804515
140539.0863487026
153659.08344952014
100000.00066521607
100000.00251159079
100000.0104936304
100000.0416265312
100000.15348763406
100000.5241275622
100001.65434026405
100004.90191169755
100013.64417039948
100035.54616963514
100086.49050038302
100196.43428245609
100416.74766917543
100827.58355464491
101542.94377478515
102711.2867981396
104510.87698266075
107141.02983409216
110813.93175627704
115753.19654492206
122204.00082629165
130455.89748942664
140873.49368937584
153926.56591971408
100000.00121656051
100000.00440246453
100000.01759715595
100000.06672113808
100000.234985059
100000.76585699216
100002.34316489316
100006.735504739
100018.12937910898
100045.59917936027
100107.10947278705
100235.12267531824
100483.23149196804
100932.45696510928
101695.3596126528
102916.33299260946
104767.60180431118
107441.97422687247
111146.6800738523
116101.95110352726
122552.295246393
130785.64357247353
141167.01716647058
154160.33937644432
100000.00213157032
100000.00738935762
100000.02824834194
100000.10236609857
100000.34443558211
100001.08812813557
100003.23015848822
100008.9825484163
100023.35415640936
100056.73465066991
100128.86034686877
100274.10726120863
100547.48909637604
101030.20158823385
101833.18368578724
103097.50565797304
104990.8654214208
107701.9128978776
111433.8364193099
116404.35382371204
122857.27745031125
131078.94257227363
141430.83266789143
154374.4571774433
100000.00357817199
100000.01188045218
100000.04344500504
100000.15058023541
100000.49105147793
100001.5052370308
100004.32407890135
100011.61975802816
100029.19102571777
100068.59450595005
100151.00923749992
100312.21020692914
100608.07687174993
101119.64407040595
101956.43193915802
103257.01418424398
105185.86266691415
107928.34715974444
111685.54218380632
116673.25711205871
123131.9736643633
131346.86972048137
141674.0110848239
154570.56565514923
100000.0057582721
100000.01831973504
100000.06416222356
100000.2154862632
100000.6817824728
100002.02281725283
100005.61715953368
100014.59018515781
100035.46495085138
100080.79263653424
100172.89109361588
100348.54342397413
100664.16413725137
101200.56485299437
102066.2184668335
103397.77378810666
105358.06492058314
108129.83569602165
111911.66847078869
116918.0411601066
123385.47366867216
131595.37632768656
141901.68651277258
154749.92878052843
100000.0088992016
100000.0271765013
100000.09219431199
100000.30033674261
100000.91986988416
100002.63890106314
100007.08509487896
100017.81086679947
100041.97955304311
100092.96816625856
100193.98203303164
100382.55728997786
100715.50147712116
101273.49285388047
102164.39364758466
103523.70173771484
105512.53058784164
108312.41154113226
112119.67033022236
117145.59715452474
123624.25023027495
131831.52994180928
142115.52004849905
154913.60352922868
100000.01325942643
100000.03922248063
100000.12901773569
100000.406876115
100001.20517848564
100003.34362013942
100008.69027389276
100021.18616079939
100048.54633164617
100104.82708570971
100213.946450916
100414.04638142095
100762.30155313645
101339.47744408347
102253.05259509535
103638.12984381882
105654.58122257378
108482.07975415158
112315.30209430527
117361.92424127168
123851.43358162598
132055.24780053692
142311.08295523308
155054.8420054353
100000.01921826517
100000.0551226927
100000.17551987064
100000.53539452088
100001.53395387097
100004.12051604046
100010.38747447717
100024.62136815143
100055.00872072087
100116.1741815138
100232.63407194335
100443.09496999004
100805.15981937775
101399.7898170699
102334.57149419516
103744.15319931065
105787.60344022787
108643.23298011259
112502.72206406434
117569.73480385706
124068.52826738716
132263.2985715247
142482.71475081396
155153.32736735113
100000.02711603754
100000.07531785688
100000.23198113666
100000.68456143685
100001.89931663233
100004.94913368729
100012.13091638766
100028.03568337143
100061.25702201562
100126.91247492097
100250.06651048103
100469.9597417417
100844.76012236363
101455.84756985189
102410.98043771897
103844.63162484507
105915.1035394616
108798.93999222525
112684.10991967306
117769.23288426032
124271.65750836609
132444.0243697193
142601.21508450928
100000.03719882188
100000.09999729715
100000.29798491338
100000.8516240498
100002.29230995267
100005.80818589096
100013.88100587347
100031.37128635353
100067.23528546092
100137.04233418158
100266.38880556934
100495.12151776874
100881.98433181267
101508.95815287808
102484.09442085498
103941.7153578034
106039.1372783604
108950.04155533008
112858.79816515204
117956.89997552542
124449.12071368891
132570.29390079537
100000.04959522132
100000.12905826801
100000.3724800849
100001.03282654133
100002.70338077328
100006.67872137114
100015.60809113068
100034.59716008427
100072.93894113807
100146.63942560155
100281.84054155047
100519.02589720814
100917.60809091998
101560.28971604173
102555.29700258984
104036.81685206732
106160.5449761366
109097.15752829355
113023.5188625789
118121.171065009
124573.33709235945
100000.06429205948
100000.16211516382
100000.45394597674
100001.22404619968
100003.12389517388
100007.5464581575
100017.29577960788
100037.70709918265
100078.39434073378
100155.81063229527
100296.65715298265
100542.09866362684
100952.33206502126
101610.63333376888
102625.49933057414
104130.5869830648
106278.97365420892
109236.06184613971
113169.18697596561
118236.39693488668
100000.08113774036
100000.1985736512
100000.54067498485
100001.4214668743
100003.54723409496
100008.40322606744
100018.94038520276
100040.71796059614
100083.67291075083
100164.70205877325
100311.11794811707
100564.79247910621
100986.67851470786
101660.55313894626
102695.09155302451
104222.26096566801
106391.6239020952
109358.89203400456
113271.03477009574
100000.09987033863
100000.23773874769
100000.63104895611
100001.62216033794
100003.96946648072
100009.24694482573
100020.54951924983
100043.65724491303
100088.84501588119
100173.47549090086
100325.4555771995
100587.42081364905
101020.9867866001
101710.34509910729
102763.5722855691
104309.79899769234
106491.10241924199
109445.34132450781
100000.12017492217
100000.27894627447
100000.72381672221
100001.82435089756
100004.38970859011
100010.08137841453
100022.13723316915
100046.5669285194
100093.98414844363
100182.22852516333
100339.86431052633
100610.18064217613
101055.37768145131
101759.60798927044
102829.27253548932
104387.75362462192
106561.631162698
100000.14174248796
100000.32166824995
100000.81821462451
100002.02757889646
100004.80902046793
100010.91254726483
100023.72372296447
100049.48576649245
100099.1635824208
100191.10816396082
100354.45614342995
100633.12797060008
101089.5622624094
101807.02895307346
102887.71236305626
104442.67742219863
100000.16432819162
100000.36559870803
100000.91406406347
100002.23258333736
100005.23164477947
100011.7511987416
100025.32974560867
100052.45195971572
100104.44722786655
100200.14034648567
100369.21579613451
100656.01414320174
101122.61481270191
101849.37122322207
102929.05530763324
100000.18779351348
100000.41067903546
100001.01178804832
100002.4411644297
100005.6619615682
100012.60761289674
100026.97607144143
100055.49749926865
100109.8631166922
100209.34316423886
100384.06012532914
100678.21124487647
101152.18649768595
101879.37249291185
100000.21213142443
100000.45711103444
100001.11202472229
100002.65522914311
100006.10476996195
100013.49216908561
100028.67690004433
100058.63983540586
100115.41544842636
100218.62815508588
100398.48731128393
100698.21606435261
101173.18576602076
100000.23744231013
100000.50526846483
100001.21608359304
100002.87788218436
100006.56571269964
100014.41274300756
100030.44170415716
100061.87852960751
100121.03409738462
100227.7082282008
100411.51422033552
100712.40605211147
100000.26395609276
100000.55565852286
100001.32500837225
100003.11106004672
100007.04889947832
100015.37438768144
100032.27170086645
100065.17515455787
100126.55190871072
100235.91180815877
100420.80099074158
100000.29195410512
100000.60890909068
100001.44008871158
100003.3573026372
100007.55703988895
100016.37696085965
100034.1446623442
100068.42890712811
100131.57243385375
100241.79672565352
100000.32180900262
100000.66563535052
100001.56246492131
100003.61795046018
100008.0900455629
100017.4083679728
100036.00094460098
100071.3920626538
100135.16424748517
100000.35386470951
100000.72639799381
100001.6928979589
100003.89282343954
100008.6405824687
100018.43560177556
100037.69819681808
100073.51997259402
100000.38842212982
100000.79158375191
100001.83106560435
100004.17852984062
100009.19117398915
100019.37747774023
100038.92002064631
100000.42573972381
100000.86116269112
100001.97575909311
100004.46565208516
100009.69938783777
100020.0575779266
100000.46581348508
100000.9342894293
100002.12162055999
100004.7310152729
100010.06659904939
100000.50815958856
100001.00843072274
100002.2571458099
100004.92416857672
100000.5513196862
100001.0777285059
100002.35592574613
100000.59175308271
100001.12828901515
100000.62138167916
SCALARS T float 1
LOOKUP_TABLE default
300.0014775637904
300.00142538715727
300.0029384478472
300.0012919445292
300.00284124536586
300.00657720916564
300.0011054635331
300.0025739853571
300.0063666172326
300.0148622040952
300.00089586468704
300.00219791019623
300.00575685475764
300.014394792116
300.0329447220988
300.00068947431123
300.00177610251313
300.00489716462255
300.0129790857617
300.03190978676815
300.0712889136636
300.00050516649367
300.0013626655024
300.00393824788057
300.0109861624809
300.0286528559248
300.0689834051357
300.1508368467454
300.0003531505369
300.0009953826477
300.00300569158105
300.0087815652883
300.0240954913968
300.0615668271772
300.1455463703897
300.3134371568008
300.0002360308517
300.00069396135746
300.0021841253499
300.00665927489723
300.01911423282644
300.0513232273563
300.1287202450429
300.30054194336793
300.64415593304955
300.00015109493586
300.0004627599683
300.00151528100065
300.00480877869194
300.01438220725015
300.04031991860313
300.1060347640813
300.2621451574405
300.609744372562
301.3232937451951
300.00009279200344
300.00029571085156
300.00100599154746
300.0033167621564
300.0103086506719
300.0300482264286
300.08226841677737
300.2124496240771
300.5206416616936
301.2208770622536
302.76194981068244
300.0000547497122
300.00018137734423
300.0006403739025
300.0021905066241
300.0070622259402
300.02134668882115
300.06058727705965
300.16220199161074
300.412560357285
301.00853595513234
302.4206450870745
305.9994139824728
300.0000310767703
300.00010693697556
300.00039150388574
300.00138804955645
300.0046363615578
300.0145088072203
300.04258624651686
300.11772581168583
300.3085582765218
300.7748926087992
301.89944108062366
304.73269432545766
313.96391380172287
300.0000169899004
300.00006068187713
300.00023020838944
300.000845326024
300.00292288309237
300.0094601873479
300.0286789248629
300.0817088912088
300.22001483582153
300.56467472440016
301.40017701319715
303.4367562386424
308.8006746860231
320.7480535078217
300.0000089560228
300.0000331799756
300.000130356129
300.00049546170044
300.00177238784556
300.0059295744892
300.0185541391934
300.0544426537373
300.15046789860276
300.39425526360134
300.98857206562815
302.40472017458023
305.7745669760549
313.1715352811215
325.5922541453396
300.00000455664633
300.00001749949865
300.00007116169877
300.0002798222325
300.00103513960795
300.00357842035527
300.01155460338117
300.0349141645245
300.0990582651274
300.2651627229479
300.6739684444314
301.63892588574873
303.8314170942614
308.53795052525277
317.0531946105994
329.21820393160027
300.00000223967857
300.0000089109407
300.00003748783286
300.000152439092
300.0005829419325
300.002081805907
300.00693631510165
300.02158801904875
300.0629144860384
300.17228596674516
300.4452236906952
301.0903024792219
302.53091472770217
305.58782680520846
311.32409778538954
320.3056480890742
332.0015369581983
300.00000106440723
300.0000043848423
300.00001907462945
300.0000801767588
300.00031684959845
300.00116872995926
300.0040182848573
300.0128855868092
300.0386031296234
300.1083058316845
300.2853790408251
300.707796462906
301.6502834503703
303.6501274649255
307.4958715284274
313.8957807349138
322.9770259721339
334.17032575771907
300.00000048952063
300.00000208674646