# vtk DataFile Version 2.0
JuliaCFD
ASCII
DATASET UNSTRUCTURED_GRID

POINTS 1900 float
0.0 0.0 0.005
0.0 0.0416667 0.005
0.0 0.0833333 0.005
0.0 0.125 0.005
0.0 0.166667 0.005
0.0 0.208333 0.005
0.0 0.25 0.005
0.0 0.291667 0.005
0.0 0.333333 0.005
0.0 0.375 0.005
0.0 0.416667 0.005
0.0 0.458333 0.005
0.0 0.5 0.005
0.0 0.541667 0.005
0.0 0.583333 0.005
0.0 0.625 0.005
0.0 0.666667 0.005
0.0 0.708333 0.005
0.0 0.75 0.005
0.0 0.791667 0.005
0.0 0.833333 0.005
0.0 0.875 0.005
0.0 0.916667 0.005
0.0 0.958333 0.005
0.0 1.0 0.005
0.0409575 0.0 0.005
0.0409401 0.0416667 0.005
0.0409227 0.0833333 0.005
0.0409054 0.125 0.005
0.040888 0.166667 0.005
0.0408706 0.208333 0.005
0.0408532 0.25 0.005
0.0408359 0.291667 0.005
0.0408185 0.333333 0.005
0.0408011 0.375 0.005
0.0407838 0.416667 0.005
0.0407664 0.458333 0.005
0.040749 0.5 0.005
0.0407316 0.541667 0.005
0.0407143 0.583333 0.005
0.0406969 0.625 0.005
0.0406795 0.666667 0.005
0.0406621 0.708333 0.005
0.0406448 0.75 0.005
0.0406274 0.791667 0.005
0.04061 0.833333 0.005
0.0405927 0.875 0.005
0.0405753 0.916667 0.005
0.0405579 0.958333 0.005
0.0405405 1.0 0.005
0.0819149 0.0 0.005
0.0818802 0.0416667 0.005
0.0818455 0.0833333 0.005
0.0818107 0.125 0.005
0.081776 0.166667 0.005
0.0817412 0.208333 0.005
0.0817065 0.25 0.005
0.0816717 0.291667 0.005
0.081637 0.333333 0.005
0.0816022 0.375 0.005
0.0815675 0.416667 0.005
0.0815328 0.458333 0.005
0.081498 0.5 0.005
0.0814633 0.541667 0.005
0.0814285 0.583333 0.005
0.0813938 0.625 0.005
0.081359 0.666667 0.005
0.0813243 0.708333 0.005
0.0812895 0.75 0.005
0.0812548 0.791667 0.005
0.0812201 0.833333 0.005
0.0811853 0.875 0.005
0.0811506 0.916667 0.005
0.0811158 0.958333 0.005
0.0810811 1.0 0.005
0.122872 0.0 0.005
0.12282 0.0416667 0.005
0.122768 0.0833333 0.005
0.122716 0.125 0.005
0.122664 0.166667 0.005
0.122612 0.208333 0.005
0.12256 0.25 0.005
0.122508 0.291667 0.005
0.122455 0.333333 0.005
0.122403 0.375 0.005
0.122351 0.416667 0.005
0.122299 0.458333 0.005
0.122247 0.5 0.005
0.122195 0.541667 0.005
0.122143 0.583333 0.005
0.122091 0.625 0.005
0.122039 0.666667 0.005
0.121986 0.708333 0.005
0.121934 0.75 0.005
0.121882 0.791667 0.005
0.12183 0.833333 0.005
0.121778 0.875 0.005
0.121726 0.916667 0.005
0.121674 0.958333 0.005
0.121622 1.0 0.005
0.16383 0.0 0.005
0.16376 0.0416667 0.005
0.163691 0.0833333 0.005
0.163621 0.125 0.005
0.163552 0.166667 0.005
0.163482 0.208333 0.005
0.163413 0.25 0.005
0.163343 0.291667 0.005
0.163274 0.333333 0.005
0.163204 0.375 0.005
0.163135 0.416667 0.005
0.163066 0.458333 0.005
0.162996 0.5 0.005
0.162927 0.541667 0.005
0.162857 0.583333 0.005
0.162788 0.625 0.005
0.162718 0.666667 0.005
0.162649 0.708333 0.005
0.162579 0.75 0.005
0.16251 0.791667 0.005
0.16244 0.833333 0.005
0.162371 0.875 0.005
0.162301 0.916667 0.005
0.162232 0.958333 0.005
0.162162 1.0 0.005
0.204787 0.0 0.005
0.2047 0.0416667 0.005
0.204614 0.0833333 0.005
0.204527 0.125 0.005
0.20444 0.166667 0.005
0.204353 0.208333 0.005
0.204266 0.25 0.005
0.204179 0.291667 0.005
0.204092 0.333333 0.005
0.204006 0.375 0.005
0.203919 0.416667 0.005
0.203832 0.458333 0.005
0.203745 0.5 0.005
0.203658 0.541667 0.005
0.203571 0.583333 0.005
0.203484 0.625 0.005
0.203398 0.666667 0.005
0.203311 0.708333 0.005
0.203224 0.75 0.005
0.203137 0.791667 0.005
0.20305 0.833333 0.005
0.202963 0.875 0.005
0.202876 0.916667 0.005
0.20279 0.958333 0.005
0.202703 1.0 0.005
0.245745 0.0 0.005
0.245641 0.0416667 0.005
0.245536 0.0833333 0.005
0.245432 0.125 0.005
0.245328 0.166667 0.005
0.245224 0.208333 0.005
0.245119 0.25 0.005
0.245015 0.291667 0.005
0.244911 0.333333 0.005
0.244807 0.375 0.005
0.244703 0.416667 0.005
0.244598 0.458333 0.005
0.244494 0.5 0.005
0.24439 0.541667 0.005
0.244286 0.583333 0.005
0.244181 0.625 0.005
0.244077 0.666667 0.005
0.243973 0.708333 0.005
0.243869 0.75 0.005
0.243764 0.791667 0.005
0.24366 0.833333 0.005
0.243556 0.875 0.005
0.243452 0.916667 0.005
0.243347 0.958333 0.005
0.243243 1.0 0.005
0.286702 0.0 0.005
0.286581 0.0416667 0.005
0.286459 0.0833333 0.005
0.286337 0.125 0.005
0.286216 0.166667 0.005
0.286094 0.208333 0.005
0.285973 0.25 0.005
0.285851 0.291667 0.005
0.285729 0.333333 0.005
0.285608 0.375 0.005
0.285486 0.416667 0.005
0.285365 0.458333 0.005
0.285243 0.5 0.005
0.285121 0.541667 0.005
0.285 0.583333 0.005
0.284878 0.625 0.005
0.284757 0.666667 0.005
0.284635 0.708333 0.005
0.284513 0.75 0.005
0.284392 0.791667 0.005
0.28427 0.833333 0.005
0.284149 0.875 0.005
0.284027 0.916667 0.005
0.283905 0.958333 0.005
0.283784 1.0 0.005
0.32766 0.0 0.005
0.327521 0.0416667 0.005
0.327382 0.0833333 0.005
0.327243 0.125 0.005
0.327104 0.166667 0.005
0.326965 0.208333 0.005
0.326826 0.25 0.005
0.326687 0.291667 0.005
0.326548 0.333333 0.005
0.326409 0.375 0.005
0.32627 0.416667 0.005
0.326131 0.458333 0.005
0.325992 0.5 0.005
0.325853 0.541667 0.005
0.325714 0.583333 0.005
0.325575 0.625 0.005
0.325436 0.666667 0.005
0.325297 0.708333 0.005
0.325158 0.75 0.005
0.325019 0.791667 0.005
0.32488 0.833333 0.005
0.324741 0.875 0.005
0.324602 0.916667 0.005
0.324463 0.958333 0.005
0.324324 1.0 0.005
0.368617 0.0 0.005
0.368461 0.0416667 0.005
0.368305 0.0833333 0.005
0.368148 0.125 0.005
0.367992 0.166667 0.005
0.367835 0.208333 0.005
0.367679 0.25 0.005
0.367523 0.291667 0.005
0.367366 0.333333 0.005
0.36721 0.375 0.005
0.367054 0.416667 0.005
0.366897 0.458333 0.005
0.366741 0.5 0.005
0.366585 0.541667 0.005
0.366428 0.583333 0.005
0.366272 0.625 0.005
0.366116 0.666667 0.005
0.365959 0.708333 0.005
0.365803 0.75 0.005
0.365647 0.791667 0.005
0.36549 0.833333 0.005
0.365334 0.875 0.005
0.365178 0.916667 0.005
0.365021 0.958333 0.005
0.364865 1.0 0.005
0.409575 0.0 0.005
0.409401 0.0416667 0.005
0.409227 0.0833333 0.005
0.409054 0.125 0.005
0.40888 0.166667 0.005
0.408706 0.208333 0.005
0.408532 0.25 0.005
0.408359 0.291667 0.005
0.408185 0.333333 0.005
0.408011 0.375 0.005
0.407838 0.416667 0.005
0.407664 0.458333 0.005
0.40749 0.5 0.005
0.407316 0.541667 0.005
0.407143 0.583333 0.005
0.406969 0.625 0.005
0.406795 0.666667 0.005
0.406621 0.708333 0.005
0.406448 0.75 0.005
0.406274 0.791667 0.005
0.4061 0.833333 0.005
0.405927 0.875 0.005
0.405753 0.916667 0.005
0.405579 0.958333 0.005
0.405405 1.0 0.005
0.450532 0.0 0.005
0.450341 0.0416667 0.005
0.45015 0.0833333 0.005
0.449959 0.125 0.005
0.449768 0.166667 0.005
0.449577 0.208333 0.005
0.449386 0.25 0.005
0.449195 0.291667 0.005
0.449003 0.333333 0.005
0.448812 0.375 0.005
0.448621 0.416667 0.005
0.44843 0.458333 0.005
0.448239 0.5 0.005
0.448048 0.541667 0.005
0.447857 0.583333 0.005
0.447666 0.625 0.005
0.447475 0.666667 0.005
0.447284 0.708333 0.005
0.447093 0.75 0.005
0.446901 0.791667 0.005
0.44671 0.833333 0.005
0.446519 0.875 0.005
0.446328 0.916667 0.005
0.446137 0.958333 0.005
0.445946 1.0 0.005
0.49149 0.0 0.005
0.491281 0.0416667 0.005
0.491073 0.0833333 0.005
0.490864 0.125 0.005
0.490656 0.166667 0.005
0.490447 0.208333 0.005
0.490239 0.25 0.005
0.49003 0.291667 0.005
0.489822 0.333333 0.005
0.489613 0.375 0.005
0.489405 0.416667 0.005
0.489197 0.458333 0.005
0.488988 0.5 0.005
0.48878 0.541667 0.005
0.488571 0.583333 0.005
0.488363 0.625 0.005
0.488154 0.666667 0.005
0.487946 0.708333 0.005
0.487737 0.75 0.005
0.487529 0.791667 0.005
0.48732 0.833333 0.005
0.487112 0.875 0.005
0.486903 0.916667 0.005
0.486695 0.958333 0.005
0.486486 1.0 0.005
0.531954 0.00563435 0.005
0.531749 0.0470663 0.005
0.531544 0.0884982 0.005
0.531338 0.12993 0.005
0.531133 0.171362 0.005
0.530928 0.212794 0.005
0.530722 0.254226 0.005
0.530517 0.295658 0.005
0.530312 0.33709 0.005
0.530107 0.378521 0.005
0.529901 0.419953 0.005
0.529696 0.461385 0.005
0.529491 0.502817 0.005
0.529285 0.544249 0.005
0.52908 0.585681 0.005
0.528875 0.627113 0.005
0.528669 0.668545 0.005
0.528464 0.709977 0.005
0.528259 0.751409 0.005
0.528054 0.79284 0.005
0.527848 0.834272 0.005
0.527643 0.875704 0.005
0.527438 0.917136 0.005
0.527232 0.958568 0.005
0.527027 1.0 0.005
0.572289 0.0127465 0.005
0.572093 0.0538821 0.005
0.571896 0.0950177 0.005
0.571699 0.136153 0.005
0.571502 0.177289 0.005
0.571306 0.218424 0.005
0.571109 0.25956 0.005
0.570912 0.300695 0.005
0.570715 0.341831 0.005
0.570519 0.382967 0.005
0.570322 0.424102 0.005
0.570125 0.465238 0.005
0.569928 0.506373 0.005
0.569732 0.547509 0.005
0.569535 0.588644 0.005
0.569338 0.62978 0.005
0.569142 0.670916 0.005
0.568945 0.712051 0.005
0.568748 0.753187 0.005
0.568551 0.794322 0.005
0.568355 0.835458 0.005
0.568158 0.876593 0.005
0.567961 0.917729 0.005
0.567764 0.958864 0.005
0.567568 1.0 0.005
0.612625 0.0198587 0.005
0.612436 0.0606979 0.005
0.612248 0.101537 0.005
0.61206 0.142376 0.005
0.611872 0.183216 0.005
0.611684 0.224055 0.005
0.611496 0.264894 0.005
0.611307 0.305733 0.005
0.611119 0.346572 0.005
0.610931 0.387412 0.005
0.610743 0.428251 0.005
0.610555 0.46909 0.005
0.610366 0.509929 0.005
0.610178 0.550769 0.005
0.60999 0.591608 0.005
0.609802 0.632447 0.005
0.609614 0.673286 0.005
0.609425 0.714125 0.005
0.609237 0.754965 0.005
0.609049 0.795804 0.005
0.608861 0.836643 0.005
0.608673 0.877482 0.005
0.608484 0.918322 0.005
0.608296 0.959161 0.005
0.608108 1.0 0.005
0.65296 0.0269708 0.005
0.65278 0.0675137 0.005
0.652601 0.108057 0.005
0.652421 0.148599 0.005
0.652241 0.189142 0.005
0.652062 0.229685 0.005
0.651882 0.270228 0.005
0.651702 0.310771 0.005
0.651523 0.351314 0.005
0.651343 0.391857 0.005
0.651164 0.4324 0.005
0.650984 0.472943 0.005
0.650804 0.513485 0.005
0.650625 0.554028 0.005
0.650445 0.594571 0.005
0.650265 0.635114 0.005
0.650086 0.675657 0.005
0.649906 0.7162 0.005
0.649726 0.756743 0.005
0.649547 0.797286 0.005
0.649367 0.837828 0.005
0.649188 0.878371 0.005
0.649008 0.918914 0.005
0.648828 0.959457 0.005
0.648649 1.0 0.005
0.693295 0.034083 0.005
0.693124 0.0743295 0.005
0.692953 0.114576 0.005
0.692782 0.154823 0.005
0.692611 0.195069 0.005
0.69244 0.235316 0.005
0.692269 0.275562 0.005
0.692098 0.315809 0.005
0.691926 0.356055 0.005
0.691755 0.396302 0.005
0.691584 0.436548 0.005
[...]
CELL_DATA 888
SCALARS P float 1
LOOKUP_TABLE default
100018.50186032885
100018.29801518763
100029.21105645254
100017.47376172546
100028.97830267818
100049.42647076129
100016.16414898385
100027.68856364331
100049.1368545126
100085.88794200937
100014.51376777391
100025.59138681027
100046.92113330543
100085.51463800827
100149.983680083
100012.66929363106
100022.94099704118
100043.2618664123
100081.53034164348
100149.50214437612
100260.91936345931
100010.76623302806
100019.98578605929
100038.64364240084
100074.89733649827
100142.17043283592
100260.25431715882
100451.32016838744
100008.91760634683
100016.9486914106
100033.52603345968
100066.57221643298
100129.95761923793
100246.51652715185
100450.02691080359
100777.84280823763
100007.20750759899
100014.01107434224
100028.30760890986
100057.43373584622
100114.78495780894
100223.84125200714
100423.67504764978
100773.69804737839
101343.56697387029
100005.6898404113
100011.30467100929
100023.30109761286
100048.21417644974
100098.34695692961
100196.13024364259
100381.2161290416
100721.37066574015
101326.76904243209
102352.13768495937
100004.39103386684
100008.91153198403
100018.72459477236
100039.46283120058
100081.98669556975
100166.63633329341
100330.61983519062
100640.90991105304
101217.67944613971
102281.62756165957
104260.87439805451
100003.3151894448
100006.86979340424
100014.70680700892
100031.54356632331
100066.6583138528
100137.77984220254
100278.03742016629
100548.5581877101
101062.67502442717
102039.69728166373
103962.87127394354
108289.42165021278
100002.45021408424
100005.18275029706
100011.30084352239
100024.6547480136
100052.9517062636
100111.16290235578
100227.6843705299
100455.58857695063
100894.15562381674
101735.21759491396
103389.04863495036
106982.74435576178
118424.36816624318
100001.77375331495
100003.8289466401
100008.50216580041
100018.86260454477
100041.15555951148
100087.6909690436
100182.10049045243
100368.90617514486
100731.45265714318
101428.33169018062
102780.9267710649
105550.15657844176
112209.32099853667
127669.95330332966
100001.2582899209
100002.77162084516
100006.26689483615
100014.13721169106
100031.32997799854
100067.7335253627
100142.54225558501
100292.15765623267
100584.65272656264
101147.51451372191
102226.85343515615
104338.64415996119
108733.8387878566
118031.58219755236
134676.18567441017
100000.87507987401
100001.96661136474
100004.52799225862
100010.38631923162
100023.37888817504
100051.28275041071
100109.36186195746
100226.76430337677
100458.00122504319
100903.9222177078
101752.24242216743
103363.93012375926
106470.07613585622
112544.40425404381
123476.80370058965
140156.42394085065
100000.59684689199
100001.36837124452
100003.20828759675
100007.48364734971
100017.11150076664
100038.08842788039
100082.32221753651
100172.73326925717
100352.27997839791
100699.85737852255
101358.74573423648
102589.20756211034
104864.20863690684
109084.78110804429
116527.26343955881
128285.60434936763
144505.30572631565
100000.3994037765
100000.93399865465
100002.23003446533
100005.29038661908
100012.28998047746
100027.76603513499
100060.84192678245
100129.24276442095
100266.34323599785
100533.27881127417
101039.45347365725
101976.75226928921
103672.42178443803
106721.28793808263
111987.97734161928
120382.6740358165
132435.3594878154
147975.33562124654
100000.26241571821
100000.62562860266
100001.52111424031
100003.67049684556
100008.6649609246
100019.87507813548
100044.17009430578
100095.03997771992
100198.06547742164
100400.1719949186
100784.76675535344
101495.29523651229
102767.94692095049
105019.01940806517
108855.75077142748
114980.09161123521
123960.86211505457
135976.3304163886
150748.91305846462
100000.1695345109
100000.41151685218
100001.01853426262
100002.50003712087
100005.99860329006
100013.97345850187
100031.50875536715
100068.71150520352
100144.92423079007
100295.80926549865
100584.70412506294
101119.58522896473
102075.22168801703
103754.49888434468
106600.13209116507
111151.59033052626
117917.21077468312
127198.79601488599
138978.7203162021
152968.33351583572
100000.10815887911
100000.26618249982
100000.66988927808
100001.67220602038
100004.07857338923
100009.65142501795
100022.09032633582
100048.8500071938
100104.35544417328
100215.41814019249
100429.83970730171
100829.0234739944
101543.9877316053
102800.27244578878
104929.7104204519
108352.40586408658
113503.226036797
120707.93041820008
130083.49332061861
141516.38817445384
154748.86708825408
100000.06901550676
100000.16999395183
100000.43333472454
100001.09894591734
100002.72426455672
100006.5500966586
100015.22312299207
100034.15504187135
100073.9531175545
100154.53848810402
100311.69946640522
100606.64890465305
101138.11958087399
102075.99707378898
103673.17924375038
106260.71645554632
110206.34536781006
115827.44935246992
123300.90563739162
132628.28597732127
143660.6023984418
156185.85851303366
100000.04572825148
100000.10850183373
100000.2767535771
100000.71047905242
100001.78844933015
100004.36879301377
100010.31296554084
100023.48695450129
100051.57705318395
100109.20036532907
100222.89241305126
100438.4232764346
100830.16826851827
101526.58275167432
102721.84787934288
104678.22170724123
107704.73903541901
112097.96277911622
118065.13020692936
125674.48244790453
134861.5233621315
145477.2115539407
157358.6182617859
100000.03455737433
100000.07177642891
100000.1765704682
100000.45352582124
100001.15530426381
100002.86489164378
100006.86911544847
100015.8851608258
100035.39940546494
100075.99446353108
100157.12809152075
100312.74909490933
100598.64553273447
101111.81555453816
102001.42342727778
103475.13317568299
105790.42149431971
109216.6747702814
113974.30363196619
120178.47919915561
127825.04131650145
136817.86613166556
147025.59381859584
158332.7546656415
100000.0540445037
100000.11662441799
100000.28913618732
100000.73695720566
100001.84910634962
100004.499885617
100010.56772513932
100023.90849975783
100052.07616918307
100109.16441173316
100220.10863966921
100426.45804844992
100801.0714690587
101458.10365348097
102561.10729226895
104322.15379145987
106979.86849934711
110754.6235300489
115795.35319857502
122147.03763954835
129761.59954091269
138533.45774680283
148357.6058091598
159159.12198999478
100000.08758476615
100000.1906970488
100000.46943191934
100001.17868797852
100002.90223189938
100006.91696356988
100015.88995085614
100035.13449930194
100074.72455762212
100152.76692085117
100299.92443560061
100570.49889569178
101051.24183338876
101869.87747665467
103198.76623301858
105244.09868844399
108215.8188174171
112283.0029266798
117533.47687890237
123963.15566554747
131500.08865320162
140044.04388408855
149516.81229703064
159879.18263300566
100000.14292606367
100000.30918880251
100000.75020312835
100001.8488834848
100004.45860180169
100010.3943360464
100023.33644368676
100050.38503666128
100104.52418149504
100208.13766518582
100401.30864466156
100749.34589027676
101350.96353589877
102344.22105315977
103903.1613612719
106219.63451451232
109469.61603169655
113773.8218936057
119172.07318112251
125628.4523029768
133060.60841988653
141381.94509421257
150540.24092073995
160521.26670419323
100000.23133178921
100000.4935021812
100001.17597402149
100002.83924063064
100006.6980518565
100015.26160893668
100033.46054630552
100070.48005178117
100142.4629656817
100278.6679050763
100527.72831114584
100965.0374602194
101699.5155662667
102874.83156531735
104660.14943180596
107227.09476081442
110716.47186872894
115206.88177903516
120702.87260719769
127149.61535299134
134463.8076440515
142575.99623212926
151453.75133230753
161107.12760261729
100000.36864688377
100000.77274117635
100001.80505272599
100004.26476214721
100009.83490997035
100021.88704124083
100046.82626413413
100096.14189119775
100190.92771019992
100366.96664443678
100681.10163912064
101217.9423885139
102093.6525791595
103452.76625853885
105454.23562743346
108246.33198975654
111936.39301009203
116569.00624351938
122123.88894761224
128536.98764935175
135729.638698274
143649.5115639933
152281.40221727986
161649.74203495873
100000.576409483
100001.18510753779
100002.71090150063
100006.26354960806
100014.11167738882
100030.65446053655
100063.95465979386
100129.02119376721
100251.83609150533
100474.67324104528
100862.24806473333
101506.63942654591
102527.96996782978
104067.3745725474
106269.94020079986
109259.68097592743
113114.52827703147
117852.54240206593
123437.59139501372
129801.6328877684
136875.8674452002
144620.77339970373
153035.84623434668
162158.68275812792
100000.88290977447
100001.7789140477
100003.98238950869
100008.99379590528
100019.78683649613
100041.93529269636
100085.96901413245
100170.49457306105
100326.50252010676
100602.72239793614
101070.77480868525
101828.05606323262
102995.4679055686
104707.30895886874
107092.7882851377
110252.78464162494
114240.45289601875
119054.27565541715
124648.8856454216
130956.03605834208
137917.6588520979
145504.77274910142
153729.0282272534
162633.27313868023
100001.32402103614
100002.61304553172
100005.72265688595
100012.62800292944
100027.12137867049
100056.48033508593
100113.83638893453
100221.57521820147
100415.81056333454
100751.2418686523
101305.06199505003
102177.74617201439
103488.14917217454
105361.37836141736
107910.10305461494
111214.47606831562
115307.59646813528
120174.50148478965
125763.86611498996
132010.63170024095
138866.76858533415
146312.43210295745
154366.31653508707
163079.13336170543
100001.9437382259
100003.75682318395
100008.04699097844
100017.34804680289
100036.6093020495
100074.95725090259
100148.3141385821
100283.0161496211
100520.10519641524
100919.48326671413
101562.41263991475
102550.2835075441
103997.68496009939
106019.12878327712
108711.40754668879
112136.81427916614
116312.63654960968
121214.40969511017
126788.82198119348
132975.89224721267
139733.7442451955
147051.19240391746
154951.49661325486
163489.82023563466
100002.79441331992
100005.28962124992
100011.0820232258
100023.47465208925
100048.70430085102
100097.91583157732
100190.00335910743
100355.22498146739
100639.14127662386
101105.89558828165
101839.27812282745
102939.71613952033
104515.93177236513
106671.42940870019
109488.47616263901
113014.0071324141
117254.4912077459
122178.2365590509
127731.07634082288
133859.3144010126
140525.5919036422
147724.37847097186
155485.04643541208
163862.8655685324
100003.93721677261
100007.30237818648
100015.03489620495
100031.31090762465
100063.79549975262
100125.81588334119
100239.28896915092
100438.2075264291
100772.08039814666
101308.23729389686
102131.52313972948
103339.93264115578
105035.40815046828
107310.66355091216
110235.23732142082
113843.63451625631
118133.1290235279
123068.56585616221
128596.41285765097
134666.58878710217
141247.32751101628
148336.15525610812
155966.10547180663
164194.2571055131
100005.44456506423
100009.93181248814
100020.10684980413
100041.12767794346
100082.22255672915
100158.98429001434
100296.29620823955
100531.56429917623
100917.55687020245
101523.72922496809
102434.75035299899
103745.08600316475
105549.51415242071
107930.82623665941
110947.14592592073
114623.83097983681
118950.89411061857
123889.8469280682
129389.85459767265
135403.14628180902
141901.24804982718
148885.7337682944
156389.4894213416
164477.89904260478
100007.4177987558
100013.31487600015
100026.48465315974
100053.16958433176
100104.24567231648
100197.58143992095
100360.86681290726
100634.50154161426
101073.77636580142
101749.30010345025
102744.52957689944
104149.84683120411
106052.8925116437
108527.2242607949
111621.88484939492
115354.05443865218
119708.62601454867
124645.85456049684
130115.39614663733
136071.62910619713
142488.6248559633
149369.50076989396
156746.76417013744
164678.9073557238
100009.96062231151
100017.58297481078
100034.34200995877
100067.63445505989
100130.02195054002
100241.58156353593
100432.56598149991
100745.8885382937
101238.63892002258
101981.72472790204
103056.70630962454
104549.38488672413
106540.93193504466
109096.76240574785
112257.91116361464
116035.18622458269
120409.32585838689
125339.61644835377
130775.45107836116
136672.4212184195
143005.38174834286
149773.3670308856
156994.83659730837
100013.17531933796
100022.86108472975
100043.82591738967
100084.6573559258
100159.58561549573
100290.76725933977
100510.71611352864
100864.34253797434
101409.8885191773
102217.88449175801
103367.52348647478
104940.1721828704
107010.57640451209
109637.38273566004
112854.84182905655
116668.14560573798
121054.80797975918
125971.94223687986
131369.46554265174
137201.41287944125
143436.0413398156
150052.0879842747
100017.16073903468
100029.25934506416
100055.0452720746
100104.29579087815
100192.84237440869
100344.74145676097
100594.42456116581
100988.3233496329
101585.26678419096
102454.90789784542
103673.8218374194
105318.99688004017
107459.44435606243
110148.0652269152
113412.62510896032
117253.8717702917
121645.85201798343
126543.72471550126
131892.87562038688
137641.70089285474
143731.62275826716
100022.00592180007
100036.86400385316
100068.06020324878
100126.52229009285
100229.5752986053
100402.95370284819
100682.66555748161
101116.21640739295
101762.51637588949
102690.11010577835
103972.77754497627
105683.39679939709
107886.07301015216
110627.93324957498
113931.3025702908
117792.7451911682
122181.4777608309
127048.1658375967
132329.71270915965
137942.85142335165
100027.78378224786
100045.73078830313
100082.8766821772
100151.2249255231
100269.45595899544
100464.74253288684
100774.34134877252
101246.47368673132
101939.78898584332
102921.36907108029
104262.47358160191
106032.00046799015
108289.4509048883
111076.42156510564
114410.65016063055
118282.5270059964
122655.94819745402
127468.93783073073
132627.23388120043
100034.5449180476
100055.87960517115
100099.44380071049
100178.21662178828
100312.06689709515
100529.37567428662
100868.35684162418
101377.57356088514
102115.32360390382
103147.08581179734
104541.33401669809
106363.65415284107
108668.74619617184
111493.066445926
114848.51954244415
118717.73775727589
123051.59854427697
127755.63298299316
100042.31422565886
100067.29273495298
100117.65918715707
100207.24334756786
100356.93965571128
100596.11096918053
100963.6388762476
101508.2784683934
102287.63604366289
103365.58172884061
104808.29902369194
106677.36045897266
109022.88573344519
111875.50752559735
115239.14230165917
119082.16997077558
123321.49855355608
100051.08832950855
100079.91529449706
100137.37261016901
100238.0055408693
100403.55191174029
100664.17940620355
101059.24962819101
101637.45622682279
102455.62988570471
103576.20214739074
105062.31695202537
106971.89500446909
109349.50072472633
112217.91406286463
115566.3289618493
119329.72858007568
100060.83568633515
100093.66047519415
100158.40039547635
100270.18155609083
100451.44324828178
100732.93478785788
101154.35977662427
101764.20069136245
102618.43998886012
103777.61844828501
105301.90376669161
107244.74320516277
109643.19695379163
112505.5785745071
115788.83460776777
100071.49951913397
100108.41496059857
100180.54338444032
100303.44835794563
100500.12472473369
100801.76523678403
101248.29225208831
101887.75184767795
102775.14919764629
103968.82518812428
105525.36874805583
107491.0226084934
109890.53277927417
112701.25776487599
100083.00299838363
100124.04997488087
100203.57349855793
100337.4670013693
100549.15278705342
100870.15707778689
101340.38528715564
102007.38246946404
102924.7949371801
104147.92948640826
105727.78947316171
107699.51211814868
110058.92718915368
100095.25169185144
100140.4252855851
100227.30283340787
100371.982614518
100598.17456492121
100937.63421031799
101430.0550636976
102122.24704922512
103065.57635893612
104311.08160618476
105899.55239885428
107841.39396513732
100108.14685117295
100157.39823199996
100251.51569706143
100406.69006286813
100646.84465531228
101003.74456692969
101516.65748460828
102230.93879663636
103194.39865672593
104449.80003588948
106016.80585912472
100121.5828937818
100174.83859822984
100276.03685702983
100441.371618345
100694.82498732815
101067.94787873044
101599.0560345152
102330.89843161583
103304.5451787478
104544.85142669993
100135.46364670405
100192.61965943272
100300.69735673317
100475.77324305629
100741.69919284685
101129.35559422872
101675.1744373865
102416.52758561098
103379.91478718215
100149.68995648927
100210.61730948537
100325.31795070476
100509.56853477626
100786.74226784767
101186.36078144616
101740.63619362742
102475.28902794013
100164.15942450428
100228.69602927164
100349.63214895272
100542.24314811287
100828.7396109431
101235.54295650046
101785.64900306055
100178.76535514912
100246.67002468024
100373.29546148365
100572.85747696571
100865.17525372506
101269.4437668366
100193.3534945663
100264.23620059235
100395.55291126927
100599.47086775223
100890.31926366784
100207.67104596889
100280.84599514937
100414.99671412939
100617.93851792924
100221.26163910364
100295.42615082003
100428.50668868246
100233.21563249084
100305.57279655358
100241.5608514392
SCALARS T float 1
LOOKUP_TABLE default
300.01598206457913
300.0158020702104
300.02531717636634
300.0150858707887
300.02510533124865
300.04301998947403
300.01395042343256
300.0239771917795
300.04274126799834
300.07515540866547
300.01252113798
300.0221495903704
300.0407864171936
300.0747591405229
300.13212983490797
300.01092517569117
300.01984398663194
300.03757675212216
300.071205786416
300.1315257321251
300.23182186059137
300.00927985675605
300.0172766800401
300.03353673223455
300.06534074498296
300.1248987480207
300.23077166281786
300.40523633550697
300.0076828445141
300.01464144346363
300.0290686808003
300.0580075395861
300.1139922086738
300.2181515329417
300.40291974594624
300.70727455021523
300.0062066178073
300.0120954641542
300.02452059537046
300.0499802589222
300.1005137843097
300.1976567218598
300.3782616417832
300.70066552880155
301.23895046271554
300.00489745333556
300.0097524689919
300.020164394496
300.04190153767803
300.08596690222384
300.1727869607167
300.3393454866265
300.6507762834751
301.2167648605121
302.19812261036225
300.00377785149726
300.0076828584032
300.01618858615444
300.0342505495997
300.0715368234842
300.14645135014285
300.2933903951662
300.57590670113655
301.11116923532114
302.11785157794503
304.0106919700306
300.00285104681006
300.00591889784425
300.0127033288282
300.02734188412677
300.05805834468634
300.12079808292253
300.24594310479915
300.49091053222793
300.96486061688773
301.88232714973225
303.7070187914316
307.71585689054524
300.0021063456598
300.00446272719995
300.0097528984048
300.02134427859824
300.0460405291829
300.0972313275563
300.2007641161461
300.40602969079924
300.8076938379149
301.5920424092051
303.1544365712408
306.5109173442352
316.2016544180482
300.0015242673781
300.00329519050405
300.0073316413461
300.0163109149706
300.0357254858357
300.0765273216681
300.1600761087719
300.3274408373637
300.6573264167445
301.3026374317657
302.5742157480736
305.1774846544371
311.1472187014033
323.50185958203053
300.0010809463054
300.00238405111764
300.0054000819389
300.0122116244403
300.0271548378438
300.0589847481141
300.1249363171586
300.25830496535417
300.52275576751254
301.04019381082105
302.048668754436
304.0368127743062
308.09341975135357
316.1208747945279
328.83490673570435
300.0007515185431
300.0016908321297
300.00389904662626
300.00896280819757
300.0202349396539
300.0445708542939
300.09559293783275
300.19974936295506
300.40753553459234
300.8144920866527
301.60149300908756
303.11472290193393
306.0192580389887
311.50376967367714
320.61490291253847
332.91379335695973
300.00051243208975
300.00117599495394
300.0027609548267
300.0064522164919
300.0147915209286
300.03304386353614
300.07177740966887
300.1516347119808
300.31204121604685
300.62699804449556
301.2336093450904
302.38261849786073
304.51748776094973
308.42097148973926
314.97984583042773
324.4721550058442
336.1024409700216
300.00034283020335
300.00080239081376
300.00191804342995
300.00455759696837
300.01061153725146
300.02404949332436
300.0529279964524
300.11310161534135
300.2349313836444
300.47518140254095
300.9375992928144
301.8067203493281
303.39464709979376
306.2449965850386
311.0451958198096
318.2622081963026
327.72481869466566
338.62073144778174
300.0002251964851