# vtk DataFile Version 2.0
JuliaCFD
ASCII
DATASET UNSTRUCTURED_GRID

POINTS 1900 float
0.0 0.0 0.005
0.0 0.0416667 0.005
0.0 0.0833333 0.005
0.0 0.125 0.005
0.0 0.166667 0.005
0.0 0.208333 0.005
0.0 0.25 0.005
0.0 0.291667 0.005
0.0 0.333333 0.005
0.0 0.375 0.005
0.0 0.416667 0.005
0.0 0.458333 0.005
0.0 0.5 0.005
0.0 0.541667 0.005
0.0 0.583333 0.005
0.0 0.625 0.005
0.0 0.666667 0.005
0.0 0.708333 0.005
0.0 0.75 0.005
0.0 0.791667 0.005
0.0 0.833333 0.005
0.0 0.875 0.005
0.0 0.916667 0.005
0.0 0.958333 0.005
0.0 1.0 0.005
0.0409575 0.0 0.005
0.0409401 0.0416667 0.005
0.0409227 0.0833333 0.005
0.0409054 0.125 0.005
0.040888 0.166667 0.005
0.0408706 0.208333 0.005
0.0408532 0.25 0.005
0.0408359 0.291667 0.005
0.0408185 0.333333 0.005
0.0408011 0.375 0.005
0.0407838 0.416667 0.005
0.0407664 0.458333 0.005
0.040749 0.5 0.005
0.0407316 0.541667 0.005
0.0407143 0.583333 0.005
0.0406969 0.625 0.005
0.0406795 0.666667 0.005
0.0406621 0.708333 0.005
0.0406448 0.75 0.005
0.0406274 0.791667 0.005
0.04061 0.833333 0.005
0.0405927 0.875 0.005
0.0405753 0.916667 0.005
0.0405579 0.958333 0.005
0.0405405 1.0 0.005
0.0819149 0.0 0.005
0.0818802 0.0416667 0.005
0.0818455 0.0833333 0.005
0.0818107 0.125 0.005
0.081776 0.166667 0.005
0.0817412 0.208333 0.005
0.0817065 0.25 0.005
0.0816717 0.291667 0.005
0.081637 0.333333 0.005
0.0816022 0.375 0.005
0.0815675 0.416667 0.005
0.0815328 0.458333 0.005
0.081498 0.5 0.005
0.0814633 0.541667 0.005
0.0814285 0.583333 0.005
0.0813938 0.625 0.005
0.081359 0.666667 0.005
0.0813243 0.708333 0.005
0.0812895 0.75 0.005
0.0812548 0.791667 0.005
0.0812201 0.833333 0.005
0.0811853 0.875 0.005
0.0811506 0.916667 0.005
0.0811158 0.958333 0.005
0.0810811 1.0 0.005
0.122872 0.0 0.005
0.12282 0.0416667 0.005
0.122768 0.0833333 0.005
0.122716 0.125 0.005
0.122664 0.166667 0.005
0.122612 0.208333 0.005
0.12256 0.25 0.005
0.122508 0.291667 0.005
0.122455 0.333333 0.005
0.122403 0.375 0.005
0.122351 0.416667 0.005
0.122299 0.458333 0.005
0.122247 0.5 0.005
0.122195 0.541667 0.005
0.122143 0.583333 0.005
0.122091 0.625 0.005
0.122039 0.666667 0.005
0.121986 0.708333 0.005
0.121934 0.75 0.005
0.121882 0.791667 0.005
0.12183 0.833333 0.005
0.121778 0.875 0.005
0.121726 0.916667 0.005
0.121674 0.958333 0.005
0.121622 1.0 0.005
0.16383 0.0 0.005
0.16376 0.0416667 0.005
0.163691 0.0833333 0.005
0.163621 0.125 0.005
0.163552 0.166667 0.005
0.163482 0.208333 0.005
0.163413 0.25 0.005
0.163343 0.291667 0.005
0.163274 0.333333 0.005
0.163204 0.375 0.005
0.163135 0.416667 0.005
0.163066 0.458333 0.005
0.162996 0.5 0.005
0.162927 0.541667 0.005
0.162857 0.583333 0.005
0.162788 0.625 0.005
0.162718 0.666667 0.005
0.162649 0.708333 0.005
0.162579 0.75 0.005
0.16251 0.791667 0.005
0.16244 0.833333 0.005
0.162371 0.875 0.005
0.162301 0.916667 0.005
0.162232 0.958333 0.005
0.162162 1.0 0.005
0.204787 0.0 0.005
0.2047 0.0416667 0.005
0.204614 0.0833333 0.005
0.204527 0.125 0.005
0.20444 0.166667 0.005
0.204353 0.208333 0.005
0.204266 0.25 0.005
0.204179 0.291667 0.005
0.204092 0.333333 0.005
0.204006 0.375 0.005
0.203919 0.416667 0.005
0.203832 0.458333 0.005
0.203745 0.5 0.005
0.203658 0.541667 0.005
0.203571 0.583333 0.005
0.203484 0.625 0.005
0.203398 0.666667 0.005
0.203311 0.708333 0.005
0.203224 0.75 0.005
0.203137 0.791667 0.005
0.20305 0.833333 0.005
0.202963 0.875 0.005
0.202876 0.916667 0.005
0.20279 0.958333 0.005
0.202703 1.0 0.005
0.245745 0.0 0.005
0.245641 0.0416667 0.005
0.245536 0.0833333 0.005
0.245432 0.125 0.005
0.245328 0.166667 0.005
0.245224 0.208333 0.005
0.245119 0.25 0.005
0.245015 0.291667 0.005
0.244911 0.333333 0.005
0.244807 0.375 0.005
0.244703 0.416667 0.005
0.244598 0.458333 0.005
0.244494 0.5 0.005
0.24439 0.541667 0.005
0.244286 0.583333 0.005
0.244181 0.625 0.005
0.244077 0.666667 0.005
0.243973 0.708333 0.005
0.243869 0.75 0.005
0.243764 0.791667 0.005
0.24366 0.833333 0.005
0.243556 0.875 0.005
0.243452 0.916667 0.005
0.243347 0.958333 0.005
0.243243 1.0 0.005
0.286702 0.0 0.005
0.286581 0.0416667 0.005
0.286459 0.0833333 0.005
0.286337 0.125 0.005
0.286216 0.166667 0.005
0.286094 0.208333 0.005
0.285973 0.25 0.005
0.285851 0.291667 0.005
0.285729 0.333333 0.005
0.285608 0.375 0.005
0.285486 0.416667 0.005
0.285365 0.458333 0.005
0.285243 0.5 0.005
0.285121 0.541667 0.005
0.285 0.583333 0.005
0.284878 0.625 0.005
0.284757 0.666667 0.005
0.284635 0.708333 0.005
0.284513 0.75 0.005
0.284392 0.791667 0.005
0.28427 0.833333 0.005
0.284149 0.875 0.005
0.284027 0.916667 0.005
0.283905 0.958333 0.005
0.283784 1.0 0.005
0.32766 0.0 0.005
0.327521 0.0416667 0.005
0.327382 0.0833333 0.005
0.327243 0.125 0.005
0.327104 0.166667 0.005
0.326965 0.208333 0.005
0.326826 0.25 0.005
0.326687 0.291667 0.005
0.326548 0.333333 0.005
0.326409 0.375 0.005
0.32627 0.416667 0.005
0.326131 0.458333 0.005
0.325992 0.5 0.005
0.325853 0.541667 0.005
0.325714 0.583333 0.005
0.325575 0.625 0.005
0.325436 0.666667 0.005
0.325297 0.708333 0.005
0.325158 0.75 0.005
0.325019 0.791667 0.005
0.32488 0.833333 0.005
0.324741 0.875 0.005
0.324602 0.916667 0.005
0.324463 0.958333 0.005
0.324324 1.0 0.005
0.368617 0.0 0.005
0.368461 0.0416667 0.005
0.368305 0.0833333 0.005
0.368148 0.125 0.005
0.367992 0.166667 0.005
0.367835 0.208333 0.005
0.367679 0.25 0.005
0.367523 0.291667 0.005
0.367366 0.333333 0.005
0.36721 0.375 0.005
0.367054 0.416667 0.005
0.366897 0.458333 0.005
0.366741 0.5 0.005
0.366585 0.541667 0.005
0.366428 0.583333 0.005
0.366272 0.625 0.005
0.366116 0.666667 0.005
0.365959 0.708333 0.005
0.365803 0.75 0.005
0.365647 0.791667 0.005
0.36549 0.833333 0.005
0.365334 0.875 0.005
0.365178 0.916667 0.005
0.365021 0.958333 0.005
0.364865 1.0 0.005
0.409575 0.0 0.005
0.409401 0.0416667 0.005
0.409227 0.0833333 0.005
0.409054 0.125 0.005
0.40888 0.166667 0.005
0.408706 0.208333 0.005
0.408532 0.25 0.005
0.408359 0.291667 0.005
0.408185 0.333333 0.005
0.408011 0.375 0.005
0.407838 0.416667 0.005
0.407664 0.458333 0.005
0.40749 0.5 0.005
0.407316 0.541667 0.005
0.407143 0.583333 0.005
0.406969 0.625 0.005
0.406795 0.666667 0.005
0.406621 0.708333 0.005
0.406448 0.75 0.005
0.406274 0.791667 0.005
0.4061 0.833333 0.005
0.405927 0.875 0.005
0.405753 0.916667 0.005
0.405579 0.958333 0.005
0.405405 1.0 0.005
0.450532 0.0 0.005
0.450341 0.0416667 0.005
0.45015 0.0833333 0.005
0.449959 0.125 0.005
0.449768 0.166667 0.005
0.449577 0.208333 0.005
0.449386 0.25 0.005
0.449195 0.291667 0.005
0.449003 0.333333 0.005
0.448812 0.375 0.005
0.448621 0.416667 0.005
0.44843 0.458333 0.005
0.448239 0.5 0.005
0.448048 0.541667 0.005
0.447857 0.583333 0.005
0.447666 0.625 0.005
0.447475 0.666667 0.005
0.447284 0.708333 0.005
0.447093 0.75 0.005
0.446901 0.791667 0.005
0.44671 0.833333 0.005
0.446519 0.875 0.005
0.446328 0.916667 0.005
0.446137 0.958333 0.005
0.445946 1.0 0.005
0.49149 0.0 0.005
0.491281 0.0416667 0.005
0.491073 0.0833333 0.005
0.490864 0.125 0.005
0.490656 0.166667 0.005
0.490447 0.208333 0.005
0.490239 0.25 0.005
0.49003 0.291667 0.005
0.489822 0.333333 0.005
0.489613 0.375 0.005
0.489405 0.416667 0.005
0.489197 0.458333 0.005
0.488988 0.5 0.005
0.48878 0.541667 0.005
0.488571 0.583333 0.005
0.488363 0.625 0.005
0.488154 0.666667 0.005
0.487946 0.708333 0.005
0.487737 0.75 0.005
0.487529 0.791667 0.005
0.48732 0.833333 0.005
0.487112 0.875 0.005
0.486903 0.916667 0.005
0.486695 0.958333 0.005
0.486486 1.0 0.005
0.531954 0.00563435 0.005
0.531749 0.0470663 0.005
0.531544 0.0884982 0.005
0.531338 0.12993 0.005
0.531133 0.171362 0.005
0.530928 0.212794 0.005
0.530722 0.254226 0.005
0.530517 0.295658 0.005
0.530312 0.33709 0.005
0.530107 0.378521 0.005
0.529901 0.419953 0.005
0.529696 0.461385 0.005
0.529491 0.502817 0.005
0.529285 0.544249 0.005
0.52908 0.585681 0.005
0.528875 0.627113 0.005
0.528669 0.668545 0.005
0.528464 0.709977 0.005
0.528259 0.751409 0.005
0.528054 0.79284 0.005
0.527848 0.834272 0.005
0.527643 0.875704 0.005
0.527438 0.917136 0.005
0.527232 0.958568 0.005
0.527027 1.0 0.005
0.572289 0.0127465 0.005
0.572093 0.0538821 0.005
0.571896 0.0950177 0.005
0.571699 0.136153 0.005
0.571502 0.177289 0.005
0.571306 0.218424 0.005
0.571109 0.25956 0.005
0.570912 0.300695 0.005
0.570715 0.341831 0.005
0.570519 0.382967 0.005
0.570322 0.424102 0.005
0.570125 0.465238 0.005
0.569928 0.506373 0.005
0.569732 0.547509 0.005
0.569535 0.588644 0.005
0.569338 0.62978 0.005
0.569142 0.670916 0.005
0.568945 0.712051 0.005
0.568748 0.753187 0.005
0.568551 0.794322 0.005
0.568355 0.835458 0.005
0.568158 0.876593 0.005
0.567961 0.917729 0.005
0.567764 0.958864 0.005
0.567568 1.0 0.005
0.612625 0.0198587 0.005
0.612436 0.0606979 0.005
0.612248 0.101537 0.005
0.61206 0.142376 0.005
0.611872 0.183216 0.005
0.611684 0.224055 0.005
0.611496 0.264894 0.005
0.611307 0.305733 0.005
0.611119 0.346572 0.005
0.610931 0.387412 0.005
0.610743 0.428251 0.005
0.610555 0.46909 0.005
0.610366 0.509929 0.005
0.610178 0.550769 0.005
0.60999 0.591608 0.005
0.609802 0.632447 0.005
0.609614 0.673286 0.005
0.609425 0.714125 0.005
0.609237 0.754965 0.005
0.609049 0.795804 0.005
0.608861 0.836643 0.005
0.608673 0.877482 0.005
0.608484 0.918322 0.005
0.608296 0.959161 0.005
0.608108 1.0 0.005
0.65296 0.0269708 0.005
0.65278 0.0675137 0.005
0.652601 0.108057 0.005
0.652421 0.148599 0.005
0.652241 0.189142 0.005
0.652062 0.229685 0.005
0.651882 0.270228 0.005
0.651702 0.310771 0.005
0.651523 0.351314 0.005
0.651343 0.391857 0.005
0.651164 0.4324 0.005
0.650984 0.472943 0.005
0.650804 0.513485 0.005
0.650625 0.554028 0.005
0.650445 0.594571 0.005
0.650265 0.635114 0.005
0.650086 0.675657 0.005
0.649906 0.7162 0.005
0.649726 0.756743 0.005
0.649547 0.797286 0.005
0.649367 0.837828 0.005
0.649188 0.878371 0.005
0.649008 0.918914 0.005
0.648828 0.959457 0.005
0.648649 1.0 0.005
0.693295 0.034083 0.005
0.693124 0.0743295 0.005
0.692953 0.114576 0.005
0.692782 0.154823 0.005
0.692611 0.195069 0.005
0.69244 0.235316 0.005
0.692269 0.275562 0.005
0.692098 0.315809 0.005
0.691926 0.356055 0.005
0.691755 0.396302 0.005
0.691584 0.436548 0.005
[...]
CELL_DATA 888
SCALARS P float 1
LOOKUP_TABLE default
100001.7127594225
100001.65266097274
100003.39654401041
100001.49834713119
100003.2854205046
100007.57642928927
100001.28248433379
100002.9776353772
100007.33800144886
100017.04545631814
100001.03969948748
100002.5438297012
100006.6393476497
100016.52318506579
100037.5705013595
100000.80048759954
100002.0567644648
100005.65190628909
100014.91162729966
100036.43482267398
100080.70373173543
100000.5867452878
100001.57892646773
100004.54880301618
100012.63484575487
100032.75855179928
100078.2330430095
100169.17463962972
100000.41035097827
100001.15405758699
100003.47459428378
100010.11070487835
100027.5879799925
100069.95136009237
100163.66012106239
100347.57935821525
100000.27437356686
100000.80507788378
100002.52703671365
100007.6762192179
100021.91898063933
100058.43103721076
100145.11661314433
100334.48194491917
100705.24136718073
100000.17570941965
100000.53717678091
100001.75468221676
100005.54974516094
100016.51946533252
100046.00345115273
100119.8765508643
100292.78611029942
100670.7880295785
101431.18739465688
100000.10794895439
100000.34345991726
100001.16589268809
100003.83231504985
100011.859907506
100034.36037736478
100093.28295475962
100238.1753480257
100575.39572210898
101328.03944582476
102967.76232890438
100000.06371502261
100000.21077744021
100000.74274137549
100002.53383507377
100008.13786451636
100024.46417711358
100068.90595634242
100182.55817118131
100458.13990334762
101102.834247375
102613.63254415925
106515.95516463519
100000.03617731499
100000.12433231197
100000.45441860541
100001.6072933489
100005.35056364584
100016.66313984449
100048.57675717755
100133.02624690901
100344.36240437685
100852.06899354076
102059.67834749231
105123.63449479292
116010.75132617287
100000.01978425295
100000.07058489705
100000.26738126898
100000.97979432503
100003.37784830487
100010.88662004036
100032.80549001646
100092.68596313844
100246.78375985134
100624.59508515101
101526.26003506452
103716.25030173654
109712.21702269706
124567.96413682603
100000.01043182545
100000.03861063182
100000.15149695586
100000.57478145952
100002.05088265329
100006.83620318041
100021.27960254882
100061.98322815956
100169.60484779353
100438.7414585714
101084.27144924727
102606.59819010292
106276.07898476935
114805.62681194367
130903.18175241609
100000.00530878374
100000.02037118618
100000.08274740756
100000.32487615925
100001.19916475305
100004.13241619657
100013.28359036648
100039.88459698143
100112.17517009916
100296.84685516107
100744.20079043707
101785.58460674578
104148.26104570249
109354.54434569318
119469.76599464852
135750.8362215017
100000.00260993003
100000.0103766401
100000.04361221283
100000.17710749667
100000.67600212377
100002.40766333563
100007.99132274972
100024.73684915922
100071.54958849473
100193.96667855221
100494.99308291476
101195.77486340977
102746.53695404292
106059.59006245995
112520.10183284865
123476.98638300697
139528.28292323434
100000.00124060638
100000.0051075591
100000.0222003191
100000.0932090589
100000.36776137233
100001.35343098879
100004.63822080633
100014.80525464367
100044.07008345361
100122.57232791939
100319.3842265084
100781.94435811431
101800.8903446184
103952.89099694909
108157.34768019893
115499.60026923999
126834.27399102536
142504.4182341158
100000.00057065125
100000.00243131015
100000.01092377967
100000.04739715124
100000.19324387635
100000.7346879537
100002.59952225196
100008.5584752824
100026.23502518267
100074.96166044033
100199.95021748636
100498.5388740597
101161.49704494297
102565.39201236224
105328.95684169514
110261.9080882095
118169.60004428269
129613.66667970785
144868.81643893523
100000.00025421321
100000.00112016073
100000.00519973513
100000.02330539611
100000.0981521896
100000.38541321422
100001.40788401033
100004.78179727211
100015.10334698806
100044.38505398377
100121.44390192578
100309.47454791678
100733.66919498667
101643.1500262186
103459.04726689104
106772.38245200268
112252.32624678027
120492.34382064102
131900.59085260116
146760.91455733927
100000.00010979726
100000.00049989275
100000.00239613153
100000.01108897352
100000.04822482908
100000.1955281088
100000.73731252307
100002.58377650216
100008.4124187153
100025.44979401781
100071.54502287791
100186.8366337451
100452.54607204942
101033.18304855717
102215.7540613661
104426.68723930306
108195.90444012026
114061.83048887126
122475.12921376107
133776.397220897
148284.3182218024
100000.00004614447
100000.00021631324
100000.00106976273
100000.00510925309
100000.02293514152
100000.09599132846
100000.37360403118
100001.35084078916
100004.5351908227
100014.13370644872
100040.8738527961
100109.60550942493
100272.04169025962
100635.47045039875
101393.7725541946
102850.43691937152
105412.44351193799
109537.65515548585
115661.06082298733
124146.07804734993
135312.2058991389
149516.70506524248
100000.00001931537
100000.00009107405
100000.00046317356
100000.0022812162
100000.01056532514
100000.0456309853
100000.18327112445
100000.6836879665
100002.3672757872
100007.60370613621
100022.64192898489
100062.43857725545
100159.14519267977
100381.3811056677
100857.93455453776
101800.73024288614
103513.69229171771
106369.78307414912
110760.0873775945
117045.33592863567
125541.45326703844
136568.02969794243
150517.07536537788
100000.0000094365
100000.00003815742
100000.0001951321
100000.00098793648
100000.00471736699
100000.02101632608
100000.08708237976
100000.33513460874
100001.19685855278
100003.96350529008
100012.16070519968
100034.52453782558
100090.51069757483
100222.95887957877
100515.49979710265
101112.65019137015
102234.76238257953
104173.90555468616
107265.13473416102
111845.4501013759
118225.31293337017
126699.01220667381
137594.12259339454
151331.34142795572
100000.00001859793
100000.00008177539
100000.00041634752
100000.00204339037
100000.00938405242
100000.04010103417
100000.15918099739
100000.58633093411
100002.00224087686
100006.33261097448
100018.52419341236
100050.01083517846
100126.81374986497
100301.82480806836
100670.91777823368
101388.88125183109
102675.75983146255
104805.49640557094
108078.01886984934
112789.60058417352
119219.77892355756
127654.51550916131
138432.38780857733
151994.4570064808
100000.00003980738
100000.00017449116
100000.00086138971
100000.00406570443
100000.0179071946
100000.073297201
100000.27842757259
100000.98051756404
100003.19768309058
100009.64320253057
100026.83422591354
100070.11742546565
100171.98807990615
100394.16653583673
100841.84946979395
101674.46966879869
103105.93752086448
105390.43235160464
108798.8170082793
113598.26835155937
120051.07283107292
128441.44715612895
139117.78053788422
152535.99984751124
100000.00008484641
100000.00036101975
100000.00171443055
100000.00776052433
100000.03273638684
100000.12821495197
100000.46562091736
100001.56600746336
100004.87051579311
100013.97880575177
100037.66845302976
100095.29796799952
100225.36515559764
100496.96185370983
101021.22562721357
101957.81507745355
103511.51044328223
105918.22903115231
109426.28619100856
114283.36964115343
120742.75024067915
129089.69035860029
139681.59994909828
152980.76210237495
100000.0001753518
100000.00071859127
100000.00327368561
100000.01419240313
100000.05728317412
100000.21448912066
100000.74397950716
100002.38692367499
100007.06915326207
100019.65534330881
100051.31801984253
100125.29819035133
100285.42674862132
100606.25249993126
101201.85439156035
102229.23548102059
103883.35618137525
106384.75220380623
109965.07698546615
114859.91562382641
121317.85309674148
129626.60199958978
140146.90019574692
153348.67192703762
100000.00034865814
100000.00137231959
100000.00598972602
100000.02484755797
100000.09588546322
100000.3429775123
100001.13524570614
100003.47056932394
100009.96030357713
100026.8480161448
100067.70592310085
100159.38355538194
100350.02972372144
100717.77963632999
101377.38812602183
102481.76393539738
104216.76130843247
106790.88102091347
110423.98264838458
115344.58933109841
121798.33122120675
130075.46641310208
140539.08632653079
153659.0834704171
100000.00066521557
100000.00251158999
100000.0104936285
100000.0416265273
100000.15348762738
100000.5241275539
100001.65434026199
100004.90191172298
100013.64417049364
100035.54616985533
100086.49050077982
100196.43428300865
100416.74766971443
100827.58355493227
101542.94377485722
102711.28679669808
104510.8769785229
107141.0298274495
110813.93174741906
115753.19653558556
122204.00081842502
130455.89748559042
140873.4936678624
153926.56594262653
100000.0012165598
100000.00440246332
100000.01759715326
100000.06672113268
100000.23498505005
100000.7658569823
100002.34316489339
100006.73550477729
100018.12937923716
100045.59917964795
100107.10947328336
100235.12267601011
100483.23149272961
100932.45696583492
101695.35961322302
102916.33299093877
104767.60180036911
107441.97422051306
111146.68006566296
116101.9510949891
122552.29523963963
130785.64357007865
141167.01714584453
154160.33940128182
100000.00213156945
100000.00738935581
100000.02824833812
100000.10236609123
100000.3444355707
100001.08812812403
100003.2301584918
100008.982548471
100023.35415657892
100056.73465103479
100128.86034749614
100274.1072620993
100547.48909747151
101030.20158957361
101833.18368690799
103097.50565642289
104990.86541804267
107701.91289223911
111433.83641201798
116404.35381625818
122857.27744486948
131078.94257134647
141430.83264806046
154374.4572038996
100000.00357817061
100000.01188044957
100000.04344499968
100000.15058022563
100000.49105146351
100001.50523701742
100004.32407890927
100011.6197581026
100029.19102593474
100068.59450640711
100151.00923828126
100312.21020807073
100608.07687327728
101119.64407254371
101956.43194049985
103257.01418348245
105185.86266428386
107928.34715499055
111685.54217753238
116673.25710575572
123131.97366017006
131346.86972080826
141674.01106549546
154570.56568283655
100000.00575827029
100000.01831973135
100000.06416221631
100000.21548625038
100000.68178245467
100002.02281723736
100005.61715954666
100014.59018525438
100035.46495112215
100080.79263709432
100172.89109457386
100348.54342540726
100664.16413927083
101200.56485527554
102066.21846834086
103397.77378812234
105358.06491876661
108129.83569216564
111911.66846548454
116918.04115481922
123385.47366547868
131595.37632892292
141901.6864935847
154749.92880905326
100000.00889919874
100000.0271764963
100000.09219430227
100000.3003367259
100000.91986986142
100002.63890104486
100007.08509489713
100017.81086691986
100041.97955337135
100092.96816692954
100193.98203417895
100382.55729175571
100715.50147974651
101273.49285633785
102164.39364949975
103523.70173842683
105512.53058677414
108312.41153805601
112119.67032569856
117145.59714998519
123624.25022774763
131831.52994358903
142115.5200291261
154913.60355833377
100000.01325942262
100000.03922247372
100000.1290177227
100000.40687609345
100001.20517845702
100003.3436201172
100008.6902739153
100021.1861609432
100048.54633203229
100104.82708649199
100213.94645225107
100414.04638313348
100762.30155564353
101339.47744686432
102253.05259749344
103638.12984511445
105654.58122209703
108482.07975163903
112315.30209029322
117361.92423716544
123851.43357943598
132055.24780255064
142311.08293543325
155054.8420348966
100000.01921825993
100000.05512268336
100000.17551985364
100000.53539449333
100001.53395383494
100004.1205160125
100010.38747450197
100024.62136831596
100055.00872116078
100116.17418239971
100232.63407347439
100443.09497227322
100805.15982222332
101399.78982019721
102334.57149700129
103744.1532010259
105787.60344013188
108643.23297791085
112502.72206028238
117569.73479989952
124068.52826527313
132263.29857355868
142482.7147304461
155153.32739723776
100000.0271160304
100000.0753178445
100000.23198111467
100000.68456140191
100001.89931658706
100004.94913365095
100012.13091641094
100028.03568355105
100061.25702250053
100126.91247589712
100250.06651213263
100469.95974416107
100844.76012545069
101455.84757324882
102410.98044079675
103844.63162679307
105915.10353952448
108798.93999009501
112684.10991588325
117769.23288023836
124271.6575061614
132444.024371664
142601.215063536
100000.0371988123
100000.09999728102
100000.29798488542
100000.85162400584
100002.29230989581
100005.80818584282
100013.88100588977
100031.37128654086
100067.23528597839
100137.04233522849
100266.38880733163
100495.12152033087
100881.98433506195
101508.95815643278
102484.09442405564
103941.71535980668
106039.13727838986
108950.04155308154
112858.7981611916
117956.89997131706
124449.12071132369
132570.2939026222
100000.04959520884
100000.12905824734
100000.37248004951
100001.0328264863
100002.7033807018
100006.67872130685
100015.60809113328
100034.59716026808
100072.93894167201
100146.63942669093
100281.84054337925
100519.0258998505
100917.6080942454
101560.28971964444
102555.29700578235
104036.81685398293
106160.5449759934
109097.15752580685
113023.51885836136
118121.17106058181
124573.33708983593
100000.06429204342
100000.16211513759
100000.4539459326
100001.22404613157
100003.12389508482
100007.54645807232
100017.29577959084
100037.70709935263
100078.39434126603
100155.81063339737
100296.65715483406
100542.0986662903
100952.33206834807
101610.63333733077
102625.49933366099
104130.58698479684
106278.97365380982
109236.06184336604
113169.1869714887
118236.39693026133
100000.08113771981
100000.1985736184
100000.5406749305
100001.42146679085
100003.54723398498
100008.4032259568
100018.94038515844
100040.71796074107
100083.67291126386
100164.7020598619
100311.11794995535
100564.79248174552
100986.67851798215
101660.55314240816
102695.09155594681
104222.2609671681
106391.6239014163
109358.89203095628
113271.03476540095
100000.09987031309
100000.23773870734
100000.63104888989
100001.62216023696
100003.96946634696
100009.24694468528
100020.54951917205
100043.65724502377
100088.84501636158
100173.47549195749
100325.45557900114
100587.42081623568
101020.98678979107
101710.34510243897
102763.57228830404
104309.79899895212
106491.10241830963
109445.34132123966
100000.12017489073
100000.27894622555
100000.7238166429
100001.82435077726
100004.38970842968
100010.08137824091
100022.13723305332
100046.56692858975
100093.98414888319
100182.22852617821
100339.86431228006
100610.18064469912
101055.3776845492
101759.6079924667
102829.27253804215
104387.75362567186
106561.63116156631
100000.14174244975
100000.32166819165
100000.81821453074
100002.0275787551
100004.80902027915
100010.91254705611
100023.7237228084
100049.48576652053
100099.16358281818
100191.10816493325
100354.45614513654
100633.12797306162
101089.56226541955
101807.02895614547
102887.71236545421
104442.67742308865
100000.16432814611
100000.36559863943
100000.9140639544
100002.23258317418
100005.23164456154
100011.75119849737
100025.3297454131
100052.4519597034
100104.44722822541
100200.14034742171
100369.2157978022
100656.01414561321
101122.61481563895
101849.37122619423
102929.05530991683
100000.18779346009
100000.41067895589
100001.01178792342
100002.44116424414
100005.66196132144
100012.60761261825
100026.9760712093
100055.49749922115
100109.86311702066
100209.34316514926
100384.06012697122
100678.21124725211
101152.18650056871
101879.37249581258
100000.21213136279
100000.45711094368
100001.11202458115
100002.65522893565
100006.1047696875
100013.49216877547
100028.67689978036
100058.63983533073
100115.41544873483
100218.62815598321
100398.48731291354
100698.21606670695
101173.1857688667
100000.2374422399
100000.50526836238
100001.21608343595
100002.87788195565
100006.56571239923
100014.41274266948
100030.4417038673
100061.87852951346
100121.03409768365
100227.7082290964
100411.51422196323
100712.40605445323
100000.26395601367
100000.55565840911
100001.32500819958
100003.11105979796
100007.04889915446
100015.37438731956
100032.27170055726
100065.17515445325
100126.55190900955
100235.91180906024
100420.80099237086
100000.29195401708
100000.60890896562
100001.44008852399
100003.35730236965
100007.5570395443
100016.37696047852
100034.1446620216
100068.42890702005
100131.57243415859
100241.79672656208
100000.32180890565
100000.66563521432
100001.56246471936
100003.6179501754
100008.09004520021
100017.40836757643
100036.00094427077
100071.39206254747
100135.16424779654
100000.35386460373
100000.72639784675
100001.6928977432
100003.89282313915
100008.64058209065
100018.43560136812
100037.6981964843
100073.51997249086
100000.38842201518
100000.79158359436
100001.83106537588
100004.17852952596
100009.1911735984
100019.37747732516
100038.92002031159
100000.42573960047
100000.86116252338
100001.97575885261
100004.46565175815
100009.69938743723
100020.05757750726
100000.46581335318
100000.93428925159
100002.12162030855
100004.73101493575
100010.0665986427
100000.50815944829
100001.00843053577
100002.25714554937
100004.92416823287
100000.55131953773
100001.07772831095
100002.35592547922
100000.59175292717
100001.12828881474
100000.62138151878
SCALARS T float 1
LOOKUP_TABLE default
300.00147756379585
300.0014253871629
300.0029384478546
300.00129194453484
300.0028412453729
300.0065772091727
300.00110546353847
300.0025739853645
300.0063666172403
300.01486220409816
300.00089586469124
300.0021979102034
300.00575685476616
300.0143947921197
300.032944722088
300.00068947431515
300.00177610251995
300.0048971646317
300.01297908576703
300.03190978675775
300.0712889136262
300.0005051664968
300.00136266550845
300.0039382478901
300.0109861624886
300.02865285591827
300.0689834050977
300.1508368466689
300.000353150539
300.00099538265266
300.0030056915904
300.0087815652985
300.02409549139554
300.06156682714465
300.14554637030716
300.31343715668453
300.00023603085305
300.0006939613615
300.0021841253588
300.00665927490905
300.01911423283144
300.05132322733215
300.12872024496517
300.3005419432296
300.64415593292057
300.0001510949361
300.000462759971
300.00151528100804
300.00480877870444
300.0143822072607
300.0403199185911
300.1060347640142
300.2621451573009
300.6097443723721
301.3232937451465
300.00009279200316
300.00029571085264
300.001005991553
300.00331676216854
300.0103086506869
300.03004822642885
300.0822684167284
300.2124496239436
300.52064166148745
301.22087706207424
302.76194981098115
300.0000547497118
300.0001813773443
300.00064037390587
300.0021905066343
300.0070622259571
300.0213466888329
300.0605872770333
300.16220199149865
300.4125603570648
301.0085359548915
302.4206450872221
305.9994139841262
300.0000310767699
300.000106936975
300.0003915038875
300.0013880495639
300.00463636157406
300.0145088072396
300.0425862465132
300.1177258116076
300.30855827631717
300.77489260848284
301.8994410805428
304.73269432678285
313.9639138054028
300.00001698989996
300.00006068187685
300.0002302083897
300.000845326029
300.0029228831059
300.00946018737034
300.02867892487757
300.0817088911695
300.2200148356593
300.5646747240732
301.4001770128249
303.4367562393877
308.8006746883243
320.74805351074025
300.0000089560225
300.0000331799749
300.00013035612835
300.0004954617029
300.0017723878556
300.0059295745109
300.0185541392195
300.05444265373404
300.1504678984989
300.39425526331763
300.988572065158
302.40472017439185
305.7745669776909
313.17153528014325
325.59225415056767
300.000004556646
300.0000174994978
300.000071161698
300.00027982223304
300.00103513961403
300.0035784203731
300.0115546034116
300.034914164547
300.0990582650841
300.2651627227433
300.6739684439857
301.6389258851871
303.8314170943647
308.53795052469445
317.0531946089258
329.2182039410746
300.0000022396784
300.00000891094004
300.0000374878319
300.0001524390914
300.0005829419352
300.00208180591926
300.0069363151293
300.0215880190856
300.0629144860445
300.17228596663256
300.44522369034706
301.0903024786056
302.53091472705125
305.58782680436514
311.32409778663913
320.3056480891738
332.00153697218576
300.0000010644071
300.0000043848417
300.00001907462837
300.00008017675765
300.0003168495989
300.001168729966
300.0040182848787
300.012885586848
300.0386031296609
300.10830583165506
300.28537904060784
300.7077964623849
301.65028344954504
303.65012746388766
307.49587152778946
313.8957807383607
322.97702597361376
334.1703257746724
300.0000004895207
300.00000208674624