# vtk DataFile Version 2.0
JuliaCFD
ASCII
DATASET UNSTRUCTURED_GRID

POINTS 1900 float
0.0 0.0 0.005
0.0 0.0416667 0.005
0.0 0.0833333 0.005
0.0 0.125 0.005
0.0 0.166667 0.005
0.0 0.208333 0.005
0.0 0.25 0.005
0.0 0.291667 0.005
0.0 0.333333 0.005
0.0 0.375 0.005
0.0 0.416667 0.005
0.0 0.458333 0.005
0.0 0.5 0.005
0.0 0.541667 0.005
0.0 0.583333 0.005
0.0 0.625 0.005
0.0 0.666667 0.005
0.0 0.708333 0.005
0.0 0.75 0.005
0.0 0.791667 0.005
0.0 0.833333 0.005
0.0 0.875 0.005
0.0 0.916667 0.005
0.0 0.958333 0.005
0.0 1.0 0.005
0.0409575 0.0 0.005
0.0409401 0.0416667 0.005
0.0409227 0.0833333 0.005
0.0409054 0.125 0.005
0.040888 0.166667 0.005
0.0408706 0.208333 0.005
0.0408532 0.25 0.005
0.0408359 0.291667 0.005
0.0408185 0.333333 0.005
0.0408011 0.375 0.005
0.0407838 0.416667 0.005
0.0407664 0.458333 0.005
0.040749 0.5 0.005
0.0407316 0.541667 0.005
0.0407143 0.583333 0.005
0.0406969 0.625 0.005
0.0406795 0.666667 0.005
0.0406621 0.708333 0.005
0.0406448 0.75 0.005
0.0406274 0.791667 0.005
0.04061 0.833333 0.005
0.0405927 0.875 0.005
0.0405753 0.916667 0.005
0.0405579 0.958333 0.005
0.0405405 1.0 0.005
0.0819149 0.0 0.005
0.0818802 0.0416667 0.005
0.0818455 0.0833333 0.005
0.0818107 0.125 0.005
0.081776 0.166667 0.005
0.0817412 0.208333 0.005
0.0817065 0.25 0.005
0.0816717 0.291667 0.005
0.081637 0.333333 0.005
0.0816022 0.375 0.005
0.0815675 0.416667 0.005
0.0815328 0.458333 0.005
0.081498 0.5 0.005
0.0814633 0.541667 0.005
0.0814285 0.583333 0.005
0.0813938 0.625 0.005
0.081359 0.666667 0.005
0.0813243 0.708333 0.005
0.0812895 0.75 0.005
0.0812548 0.791667 0.005
0.0812201 0.833333 0.005
0.0811853 0.875 0.005
0.0811506 0.916667 0.005
0.0811158 0.958333 0.005
0.0810811 1.0 0.005
0.122872 0.0 0.005
0.12282 0.0416667 0.005
0.122768 0.0833333 0.005
0.122716 0.125 0.005
0.122664 0.166667 0.005
0.122612 0.208333 0.005
0.12256 0.25 0.005
0.122508 0.291667 0.005
0.122455 0.333333 0.005
0.122403 0.375 0.005
0.122351 0.416667 0.005
0.122299 0.458333 0.005
0.122247 0.5 0.005
0.122195 0.541667 0.005
0.122143 0.583333 0.005
0.122091 0.625 0.005
0.122039 0.666667 0.005
0.121986 0.708333 0.005
0.121934 0.75 0.005
0.121882 0.791667 0.005
0.12183 0.833333 0.005
0.121778 0.875 0.005
0.121726 0.916667 0.005
0.121674 0.958333 0.005
0.121622 1.0 0.005
0.16383 0.0 0.005
0.16376 0.0416667 0.005
0.163691 0.0833333 0.005
0.163621 0.125 0.005
0.163552 0.166667 0.005
0.163482 0.208333 0.005
0.163413 0.25 0.005
0.163343 0.291667 0.005
0.163274 0.333333 0.005
0.163204 0.375 0.005
0.163135 0.416667 0.005
0.163066 0.458333 0.005
0.162996 0.5 0.005
0.162927 0.541667 0.005
0.162857 0.583333 0.005
0.162788 0.625 0.005
0.162718 0.666667 0.005
0.162649 0.708333 0.005
0.162579 0.75 0.005
0.16251 0.791667 0.005
0.16244 0.833333 0.005
0.162371 0.875 0.005
0.162301 0.916667 0.005
0.162232 0.958333 0.005
0.162162 1.0 0.005
0.204787 0.0 0.005
0.2047 0.0416667 0.005
0.204614 0.0833333 0.005
0.204527 0.125 0.005
0.20444 0.166667 0.005
0.204353 0.208333 0.005
0.204266 0.25 0.005
0.204179 0.291667 0.005
0.204092 0.333333 0.005
0.204006 0.375 0.005
0.203919 0.416667 0.005
0.203832 0.458333 0.005
0.203745 0.5 0.005
0.203658 0.541667 0.005
0.203571 0.583333 0.005
0.203484 0.625 0.005
0.203398 0.666667 0.005
0.203311 0.708333 0.005
0.203224 0.75 0.005
0.203137 0.791667 0.005
0.20305 0.833333 0.005
0.202963 0.875 0.005
0.202876 0.916667 0.005
0.20279 0.958333 0.005
0.202703 1.0 0.005
0.245745 0.0 0.005
0.245641 0.0416667 0.005
0.245536 0.0833333 0.005
0.245432 0.125 0.005
0.245328 0.166667 0.005
0.245224 0.208333 0.005
0.245119 0.25 0.005
0.245015 0.291667 0.005
0.244911 0.333333 0.005
0.244807 0.375 0.005
0.244703 0.416667 0.005
0.244598 0.458333 0.005
0.244494 0.5 0.005
0.24439 0.541667 0.005
0.244286 0.583333 0.005
0.244181 0.625 0.005
0.244077 0.666667 0.005
0.243973 0.708333 0.005
0.243869 0.75 0.005
0.243764 0.791667 0.005
0.24366 0.833333 0.005
0.243556 0.875 0.005
0.243452 0.916667 0.005
0.243347 0.958333 0.005
0.243243 1.0 0.005
0.286702 0.0 0.005
0.286581 0.0416667 0.005
0.286459 0.0833333 0.005
0.286337 0.125 0.005
0.286216 0.166667 0.005
0.286094 0.208333 0.005
0.285973 0.25 0.005
0.285851 0.291667 0.005
0.285729 0.333333 0.005
0.285608 0.375 0.005
0.285486 0.416667 0.005
0.285365 0.458333 0.005
0.285243 0.5 0.005
0.285121 0.541667 0.005
0.285 0.583333 0.005
0.284878 0.625 0.005
0.284757 0.666667 0.005
0.284635 0.708333 0.005
0.284513 0.75 0.005
0.284392 0.791667 0.005
0.28427 0.833333 0.005
0.284149 0.875 0.005
0.284027 0.916667 0.005
0.283905 0.958333 0.005
0.283784 1.0 0.005
0.32766 0.0 0.005
0.327521 0.0416667 0.005
0.327382 0.0833333 0.005
0.327243 0.125 0.005
0.327104 0.166667 0.005
0.326965 0.208333 0.005
0.326826 0.25 0.005
0.326687 0.291667 0.005
0.326548 0.333333 0.005
0.326409 0.375 0.005
0.32627 0.416667 0.005
0.326131 0.458333 0.005
0.325992 0.5 0.005
0.325853 0.541667 0.005
0.325714 0.583333 0.005
0.325575 0.625 0.005
0.325436 0.666667 0.005
0.325297 0.708333 0.005
0.325158 0.75 0.005
0.325019 0.791667 0.005
0.32488 0.833333 0.005
0.324741 0.875 0.005
0.324602 0.916667 0.005
0.324463 0.958333 0.005
0.324324 1.0 0.005
0.368617 0.0 0.005
0.368461 0.0416667 0.005
0.368305 0.0833333 0.005
0.368148 0.125 0.005
0.367992 0.166667 0.005
0.367835 0.208333 0.005
0.367679 0.25 0.005
0.367523 0.291667 0.005
0.367366 0.333333 0.005
0.36721 0.375 0.005
0.367054 0.416667 0.005
0.366897 0.458333 0.005
0.366741 0.5 0.005
0.366585 0.541667 0.005
0.366428 0.583333 0.005
0.366272 0.625 0.005
0.366116 0.666667 0.005
0.365959 0.708333 0.005
0.365803 0.75 0.005
0.365647 0.791667 0.005
0.36549 0.833333 0.005
0.365334 0.875 0.005
0.365178 0.916667 0.005
0.365021 0.958333 0.005
0.364865 1.0 0.005
0.409575 0.0 0.005
0.409401 0.0416667 0.005
0.409227 0.0833333 0.005
0.409054 0.125 0.005
0.40888 0.166667 0.005
0.408706 0.208333 0.005
0.408532 0.25 0.005
0.408359 0.291667 0.005
0.408185 0.333333 0.005
0.408011 0.375 0.005
0.407838 0.416667 0.005
0.407664 0.458333 0.005
0.40749 0.5 0.005
0.407316 0.541667 0.005
0.407143 0.583333 0.005
0.406969 0.625 0.005
0.406795 0.666667 0.005
0.406621 0.708333 0.005
0.406448 0.75 0.005
0.406274 0.791667 0.005
0.4061 0.833333 0.005
0.405927 0.875 0.005
0.405753 0.916667 0.005
0.405579 0.958333 0.005
0.405405 1.0 0.005
0.450532 0.0 0.005
0.450341 0.0416667 0.005
0.45015 0.0833333 0.005
0.449959 0.125 0.005
0.449768 0.166667 0.005
0.449577 0.208333 0.005
0.449386 0.25 0.005
0.449195 0.291667 0.005
0.449003 0.333333 0.005
0.448812 0.375 0.005
0.448621 0.416667 0.005
0.44843 0.458333 0.005
0.448239 0.5 0.005
0.448048 0.541667 0.005
0.447857 0.583333 0.005
0.447666 0.625 0.005
0.447475 0.666667 0.005
0.447284 0.708333 0.005
0.447093 0.75 0.005
0.446901 0.791667 0.005
0.44671 0.833333 0.005
0.446519 0.875 0.005
0.446328 0.916667 0.005
0.446137 0.958333 0.005
0.445946 1.0 0.005
0.49149 0.0 0.005
0.491281 0.0416667 0.005
0.491073 0.0833333 0.005
0.490864 0.125 0.005
0.490656 0.166667 0.005
0.490447 0.208333 0.005
0.490239 0.25 0.005
0.49003 0.291667 0.005
0.489822 0.333333 0.005
0.489613 0.375 0.005
0.489405 0.416667 0.005
0.489197 0.458333 0.005
0.488988 0.5 0.005
0.48878 0.541667 0.005
0.488571 0.583333 0.005
0.488363 0.625 0.005
0.488154 0.666667 0.005
0.487946 0.708333 0.005
0.487737 0.75 0.005
0.487529 0.791667 0.005
0.48732 0.833333 0.005
0.487112 0.875 0.005
0.486903 0.916667 0.005
0.486695 0.958333 0.005
0.486486 1.0 0.005
0.531954 0.00563435 0.005
0.531749 0.0470663 0.005
0.531544 0.0884982 0.005
0.531338 0.12993 0.005
0.531133 0.171362 0.005
0.530928 0.212794 0.005
0.530722 0.254226 0.005
0.530517 0.295658 0.005
0.530312 0.33709 0.005
0.530107 0.378521 0.005
0.529901 0.419953 0.005
0.529696 0.461385 0.005
0.529491 0.502817 0.005
0.529285 0.544249 0.005
0.52908 0.585681 0.005
0.528875 0.627113 0.005
0.528669 0.668545 0.005
0.528464 0.709977 0.005
0.528259 0.751409 0.005
0.528054 0.79284 0.005
0.527848 0.834272 0.005
0.527643 0.875704 0.005
0.527438 0.917136 0.005
0.527232 0.958568 0.005
0.527027 1.0 0.005
0.572289 0.0127465 0.005
0.572093 0.0538821 0.005
0.571896 0.0950177 0.005
0.571699 0.136153 0.005
0.571502 0.177289 0.005
0.571306 0.218424 0.005
0.571109 0.25956 0.005
0.570912 0.300695 0.005
0.570715 0.341831 0.005
0.570519 0.382967 0.005
0.570322 0.424102 0.005
0.570125 0.465238 0.005
0.569928 0.506373 0.005
0.569732 0.547509 0.005
0.569535 0.588644 0.005
0.569338 0.62978 0.005
0.569142 0.670916 0.005
0.568945 0.712051 0.005
0.568748 0.753187 0.005
0.568551 0.794322 0.005
0.568355 0.835458 0.005
0.568158 0.876593 0.005
0.567961 0.917729 0.005
0.567764 0.958864 0.005
0.567568 1.0 0.005
0.612625 0.0198587 0.005
0.612436 0.0606979 0.005
0.612248 0.101537 0.005
0.61206 0.142376 0.005
0.611872 0.183216 0.005
0.611684 0.224055 0.005
0.611496 0.264894 0.005
0.611307 0.305733 0.005
0.611119 0.346572 0.005
0.610931 0.387412 0.005
0.610743 0.428251 0.005
0.610555 0.46909 0.005
0.610366 0.509929 0.005
0.610178 0.550769 0.005
0.60999 0.591608 0.005
0.609802 0.632447 0.005
0.609614 0.673286 0.005
0.609425 0.714125 0.005
0.609237 0.754965 0.005
0.609049 0.795804 0.005
0.608861 0.836643 0.005
0.608673 0.877482 0.005
0.608484 0.918322 0.005
0.608296 0.959161 0.005
0.608108 1.0 0.005
0.65296 0.0269708 0.005
0.65278 0.0675137 0.005
0.652601 0.108057 0.005
0.652421 0.148599 0.005
0.652241 0.189142 0.005
0.652062 0.229685 0.005
0.651882 0.270228 0.005
0.651702 0.310771 0.005
0.651523 0.351314 0.005
0.651343 0.391857 0.005
0.651164 0.4324 0.005
0.650984 0.472943 0.005
0.650804 0.513485 0.005
0.650625 0.554028 0.005
0.650445 0.594571 0.005
0.650265 0.635114 0.005
0.650086 0.675657 0.005
0.649906 0.7162 0.005
0.649726 0.756743 0.005
0.649547 0.797286 0.005
0.649367 0.837828 0.005
0.649188 0.878371 0.005
0.649008 0.918914 0.005
0.648828 0.959457 0.005
0.648649 1.0 0.005
0.693295 0.034083 0.005
0.693124 0.0743295 0.005
0.692953 0.114576 0.005
0.692782 0.154823 0.005
0.692611 0.195069 0.005
0.69244 0.235316 0.005
0.692269 0.275562 0.005
0.692098 0.315809 0.005
0.691926 0.356055 0.005
0.691755 0.396302 0.005
0.691584 0.436548 0.005
[...]
CELL_DATA 888
SCALARS P float 1
LOOKUP_TABLE default
100146.85321757502
100146.5045453925
100206.83725829008
100144.10184483942
100206.70961421166
100294.02756168864
100139.97615138182
100203.37395720232
100294.30067826225
100421.15563420216
100134.43970998602
100197.42736845814
100289.46100760896
100422.1115108455
100607.21749049267
100127.80647199751
100189.39867147975
100280.54926641601
100414.78173273275
100609.31073143933
100880.92465594478
100120.38611194358
100179.79084906357
100268.48335083316
100400.98468980874
100597.73748495315
100884.83261211758
101286.58039980942
100112.47088548412
100169.08036900208
100254.11048405709
100382.34349062045
100575.75562069601
100865.75465281178
101293.03412205925
101894.92579649347
100104.32351372417
100157.70336163855
100238.20301992889
100360.32370839776
100546.29986110135
100829.76116158946
101260.00208714975
101903.50699812298
102825.74588767196
100096.16935470277
100146.04245699545
100221.44095262901
100336.21107497682
100511.95049699626
100782.29687679112
101199.37858805085
101842.82193417616
102829.28653606884
104302.40047294032
100088.19322737116
100134.41900051864
100204.39844966233
100311.08725358828
100474.86973653418
100727.951267932
101121.50444838495
101737.525239557
102709.51754461935
104263.1660760943
106806.74152859075
100080.5400029104
100123.0914073604
100187.54062952084
100285.82484881002
100436.78501207313
100670.35594476423
101034.55237210654
101607.56013769962
102520.34983801685
104006.64391638203
106552.89141919068
111597.1264464702
100073.3179601402
100112.25844592258
100171.22812157562
100261.09591982875
100399.01046458892
100612.23027443481
100944.52253402908
101467.26122348172
102300.04376368833
103654.67664125223
105956.27389031612
110336.3803066797
122762.26250920018
100066.60359782027
100102.06561307862
100155.7278053335
100237.39613253673
100362.50192339729
100555.50686752186
100855.5543503806
101326.13367863419
102072.52702674676
103276.66122342374
105281.2415293925
108861.42174059134
116506.59119583092
133117.53310882003
100060.44713770332
100092.6131644053
100141.22663333568
100215.07171838151
100327.91596086534
100501.48467660813
100770.34297162147
101190.08299632053
101851.604902479
102907.78148839256
104630.02015237187
107554.61662068508
112943.66178085434
123401.04524470065
141243.62668187977
100054.87813362129
100083.96451389867
100127.84610768144
100194.34789735018
100295.67453875582
100450.97910733306
100690.5219922407
101062.51175583515
101644.63479897047
102564.31745028093
104037.15741091383
106448.91899945009
110545.5627888288
117794.59151697847
130001.92747040672
147845.4465828998
100049.91070658198
100076.15464832146
100115.6562966508
100175.35610299249
100266.02123212878
100404.44673463228
100616.97315340755
100945.16006069441
101455.06042783876
102252.70998728812
103510.94507638282
105518.2332544343
108767.73007731658
114166.19560343353
122935.41362488166
136020.96482454156
153299.3600933313
100045.54833375635
100069.19753723322
100104.68876265534
100158.15675484638
100239.06652417356
100362.09008400288
100550.0686995802
100838.70420599535
101284.0311777756
101974.38939315642
103049.7140764317
104732.64666357118
107375.6113758479
111590.49464430605
118211.05753300244
128039.82747602886
141408.96386088204
157835.30873128716
100041.78820494386
100063.0929357456
100094.94765146347
100142.76017642063
100214.8285700977
100323.93585335271
100489.84031708296
100743.15257288869
101131.38378674729
101728.29838581721
102648.23091462793
104067.16079279271
106250.61193602472
109641.54460019652
114836.18864451391
122461.60056212034
132932.18205504902
146189.07979662143
161612.03112700625
100038.6250877553
100057.83242827818
100086.41919381017
100129.14236790186
100193.26210858494
100289.89599805656
100436.10823970806
100658.1233313287
100996.23778573956
101512.22589402762
102300.23178987433
103501.83374560093
105324.34395648087
108104.93712860295
112291.85608347594
118377.23636567674
126751.37705853216
137522.12469797078
150404.2744595222
164749.14361025929
100036.05518642484
100053.40487489196
100079.08046612395
100117.25952406717
100174.28448686967
100259.81200492897
100388.56796692028
100583.01589130859
100877.36421652185
101323.5009534361
101999.45164117415
103020.63938436769
104552.86948218537
106861.75259366039
110298.0580929689
115258.14526886212
122090.8779909363
130963.46553450135
141767.85344600116
154102.01227794818
167341.64576684884
100034.08052528666
100049.80194117158
100072.90674788902
100107.05866574594
100157.7922869016
100233.48871279495
100346.85157985844
100517.12641642679
100773.39481092495
101159.36263840606
101740.06305902357
102610.54267473987
103905.6813511316
105839.44230807276
108694.27658247254
112797.4293102092
118459.52739814442
125872.1159498352
135019.11515785963
145654.47701672665
157329.11316887094
169468.2620754242
100032.71483632372
100047.0248124456
100067.87951373815
100098.48903408762
100143.67890827225
100210.71929149021
100310.5693578809
100459.72733488695
100682.95039156779
101017.15829583851
101516.816427548
102260.80508221792
103360.1835710538
104989.92884663469
107381.85566191754
110810.79309293318
115554.46857242518
121815.107516101
129636.80247771101
138867.62224314097
149182.63571145234
160130.3952777626
171196.22220052403
100031.99353980435
100045.09390177281
100063.99649669704
100091.51256194734
100131.84706108761
100191.30477878143
100279.34068501934
100410.10925621842
100604.71980800935
100894.44187959065
101325.07949167892
101962.51058817178
102899.0023726644
104279.18823760036
106295.56479693289
109181.48831796748
113185.42295489057
118512.3686128394
125250.43746610665
133319.9607065193
142477.82211450455
152362.93650435266
162548.42717442795
172584.1268310067
100044.06578690592
100061.28657865833
100086.11861595957
100122.22469555605
100175.07121069658
100252.81751008188
100367.61773814814
100537.49876107322
100789.00950551502
101160.81205626109
101708.22022373913
102508.42186041686
103681.83398210851
105389.63851645339
107831.08629093038
111227.84532143909
115781.67307935393
121612.30022612574
128700.96506062978
136873.11382418673
145832.03448482297
155210.9573163898
164622.99071130482
173680.57474468282
100059.8359055984
100082.34558488724
100114.78400280852
100161.88949874311
100230.70505874335
100331.6747260164
100480.21588536329
100698.9229063474
101020.53720635512
101491.70346360221
102177.36490683617
103178.33289338554
104630.30742203386
106703.89900130691
109596.01106693532
113500.14530545376
118556.71356631626
124797.48242102657
132112.36709298208
140261.0352289286
148922.76001852585
157746.03048250743
166390.61339650693
174530.56769544203
100080.3188809729
100109.57286500244
100151.70154455763
100212.78346634304
100301.79918835982
100431.95208697017
100622.51064437444
100901.28380743401
101307.75777549784
101896.82145713059
102753.25236427938
103991.72552773218
105758.55089212467
108227.77367402545
111581.09177020268
115969.81610785052
121465.00146606757
128015.89933505832
135440.69967937624
143459.50217319097
151749.70250121964
159988.84630473048
167886.0959191259
175168.2936420972
100106.76749371871
100144.56250522714
100198.94423416199
100277.6357784021
100391.95595174888
100558.3666447594
100800.54853498888
101152.0378025263
101659.41045831454
102394.21370058447
103453.64084635497
104963.27092904157
107076.19996759067
109960.10521197683
113769.33116847364
118602.84647201022
124460.96602152544
131221.25727280087
138651.014084742
146452.9722168184
154317.95336291016
161961.3696350228
169138.00935137083
175627.8472121128
100140.71368633231
100189.24529253287
100258.99620263133
100359.67286569704
100505.3584579835
100716.26193863188
101020.94850348962
101459.07402238787
102091.19321646524
102999.89859320865
104293.0260331591
106104.66256291168
108587.51933897412
111892.92600864572
116137.45783395476
121362.31807022446
127501.0102577001
134373.84327537334
141716.70294521813
149232.70798017166
156636.30390033885
163684.54512227874
170176.19167781313
175934.29131189123
100184.01118411317
100245.93454431042
100334.79764102864
100462.65479835725
100646.77941382807
100911.55865465166
101290.8515461189
101836.05751255325
102617.48690260037
103727.76802407362
105283.9978250984
107423.69811480404
110291.16876167725
114011.97816718445
118657.5220832899
124210.17933432048
130544.92173205497
137440.2612285965
144618.1145052208
151794.45026130998
158715.54711783558
165178.5702528606
171023.37358524077
176114.64596425646
100238.88019563994
100317.36948891755
100429.78386595746
100590.8960975614
100821.56258396132
101150.75254612493
101622.19762297737
102295.85760757135
103251.32135065422
104590.5954542654
106436.48639147858
108923.75354487145
112180.23971550804
116297.74894850218
121298.44223687993
127108.96478522739
133556.4768869557
140393.1698748707
147341.46517306374
154139.10865267675
160567.86674566113
166463.32655896453
171703.23063350824
176184.030920529
100307.95020881324
100406.7568745984
100547.91589912112
100749.27164891182
101035.65097087258
101444.31560966316
102026.47979212149
102850.55589857647
104005.2315315059
105599.44217632971
107757.06402067703
110603.4787672424
114242.4915030835
118726.44217802797
124027.44686830098
130022.7441133566
136503.88792100016
143211.14957373272
149877.87688418984
156269.6902869024
162205.65115100105
167557.29501064649
172234.3749854978
176166.05561582974
100394.30326577685
100517.80877427454
100693.70575993576
100943.26826595532
101298.28792174239
101802.5408757161
102514.83989383013
103512.16806413584
104890.68528508756
106762.90025483648
109248.47523577158
112456.69126006313
116461.0448868128
121271.11189114484
126811.36217209703
132918.2458340729
139359.95732621744
145876.46728341375
152221.66201102996
158192.23376681283
163642.27190342834
168477.15976918748
172635.32787564688
176072.21760620992
100501.51421562
100654.7787487328
100872.27846103781
101181.13185867152
101618.74260345833
102235.66472220542
103098.62235424054
104292.15980330021
105917.50100240429
108086.6244848953
110909.341856519
114472.63554192187
118815.02818656509
123902.7527939548
129617.61687350411
135764.63348632187
142101.7025338189
148377.42129752337
154370.99434537583
159912.72247397527
164889.85597354994
169237.7094788238
172921.64707488203
175921.89791511395
100633.69511885372
100822.53503141638
101091.09834583505
101471.26268321059
102006.41494502107
102754.30294640045
103788.98140442368
105200.88604030771
107093.25137640852
109572.8736979246
112734.01689084312
116636.21273429893
121280.41843832769
126591.25890291437
132414.96442038947
138535.43934619153
144709.3178033259
150703.4242897398
156325.19118232705
161437.61208004018
165959.9392459883
169853.79694784436
173109.60848884386
175734.38282562557
100795.57195499427
101027.97360290143
101357.86457485719
101822.32705979494
102471.20580901342
103369.15314322471
104596.46120400482
106247.16550486453
108422.80656476486
111220.10151889533
114712.64587973604
118928.60668926708
123830.72824604256
129306.30022662951
135173.3811842367
141205.9311572095
147167.58513769583
152847.79454096186
158085.10216433476
162774.03183854822
166862.5547339942
170338.03948797035
173215.36328377528
175545.3744493446
100993.72854592965
101278.28904771693
101680.63661745212
102243.56117761131
103023.26196284655
104090.62086051427
105530.49774791578
107437.68443300683
109907.87381263654
113022.94035187518
116831.27407311043
121327.6778611762
126438.01812874884
132017.55298886957
137865.68502947455
143754.19543632152
149461.96317351883
154804.98678138168
159651.74557422404
163927.5331507604
167606.98914749548
170702.23756602086
173260.52041456624
175399.55617210816
101235.06324431887
101581.08347352796
102068.08212818351
102744.57126400749
103672.71190948164
104928.41947027906
106598.95740472498
108776.52087607248
111546.66941163052
114971.90343637252
119072.26681219584
123808.24376655565
129072.77753669611
134695.76130876975
140465.90449558268
146161.33642065982
151581.2306213896
156569.81894835358
161025.37948020844
164901.86151657175
168199.07060704997
170955.4034681818
173266.8388559304
101526.92262671719
101944.57424000118
102529.29974538648
103335.08776486156
104429.2555195726
105891.12174131855
107807.66843892676
110264.74544906848
113333.62613115447
117053.61170599652
121414.47440272749
126343.87146296033
131705.56217521385
137312.22336223465
142949.91071757578
148409.4194267392
153513.82756077254
158135.89817545548
162203.6246826614
165696.53875069285
168637.31124976062
171097.1418677654
101877.26116969623
102377.46530624972
103073.62407624157
104024.66222910999
105301.7863924602
106985.65244327774
109159.81953314635
111900.03780544946
115259.31181086962
119250.91197958692
123833.77633503746
128905.26614483731
134306.07578333822
139839.09633598826
145294.32563552976
150480.80782126554
155247.53442641423
159495.7151160374
163178.99744678132
166299.6017396488
168899.35164021948
102294.53135778914
102888.74368555883
103710.35510779031
104822.26997536814
106297.9594699128
108216.80344155573
110655.6323516632
113676.26983896024
117309.9680976668
121542.5121997073
126302.71463038174
131461.6826350305
136843.72560252473
142248.09341286664
147475.6073837823
152356.95518967303
156767.04595333315
160633.09390330466
163929.95198442254
166668.5711844856
102787.51800964192
103487.453242849
104448.41184583894
105735.92118211123
107423.64867798645
109586.77612242675
112291.88488452387
115583.42632670498
119468.34739646355
123904.01257993683
128791.91603575314
133981.50519348952
139287.01682835835
144510.45978801887
149468.88349934717
154014.99832974855
158049.0326452892
161516.0886004473
164394.1635604956
103365.0835308351
104182.3956989256
105295.95144503184
106772.21124991508
108682.45452354888
111094.59386492395
114061.47522126188
117606.90451109115
121712.48071502952
126307.53023908281
131268.8550453161
136430.67767685335
141602.68429307127
146595.58135306468
151244.55484342584
155423.85239594642
159050.12752737186
162065.35974553606
104035.91551148822
104981.74580572183
106259.95723564617
107935.72711861556
110075.21311701424
112735.69536774662
115952.94261130532
119728.07004527049
124016.06690274469
128720.40547066196
133698.20197485836
138772.31952200094
143754.25726437944
148466.91746559157
152763.0948426382
156529.97674561277
159675.03237270948
104808.17034387997
105892.64211298394
107345.65230874442
109228.54085874275
111599.19333235275
114501.1407917748
117950.28236992615
121923.14363609113
126348.6325705671
131107.58291405745
136040.37190984315
140965.2253256183
145698.87525017984
150076.58340238294
153959.73265780395
157220.96775085773
105689.03133794453
106920.70991140821
108556.0251296154
110649.66573479178
113248.09160881165
116377.65373636119
120032.28321781084
124163.14618794112
128674.50917158666
133427.07928828732
138250.03757990286
142960.5157536311
147380.99533808947
151350.0170712523
154708.2424047076
106684.26238563126
108069.4606675046
109891.21601894345
112194.29467305086
115010.53345313067
118346.3587791381
122172.10271889821
126413.26618450072
130951.74374225152
135631.63706455205
140274.46598548852
144695.62829784426
148716.43550599227
152147.0754092921
107797.66336195817
109339.7248462087
111347.57566994085
113852.9463452482
116869.85746811234
120382.48155196465
124336.04066411448
128631.7347070136
133130.99123129822
137663.6184913268
142043.7853412862
146078.51159585296
149552.82648414857
109030.37158536074
110728.87525147713
112917.4652722098
115611.32987145794
118803.50416699189
122454.24759216426
126483.10605434491
130768.16445341015
135151.24092713016
139448.77823885035
143458.30160783938
146944.88123460134
110380.30745506047
112230.10724891018
114587.70241383306
117448.2465078761
120781.47647570194
124521.75046567823
128562.90705943335
132759.9442903911
136934.50105177492
140880.2196265833
144345.5023158066
111841.19470953858
113831.57795361502
116339.11104656351
119335.76866530887
122765.33449229474
126534.87438804006
130511.75887744201
134525.89701611822
138369.33091938443
141779.0512616604
113401.82746697972
115515.25824217132
118145.10508855322
121236.8593538212
124705.87990950556
128429.77144322755
132246.5706100489
135950.37824435707
139270.37019278362
115044.85359590634
117255.76251589751
119970.17461743695
123103.45386959208
126539.44930745252
130122.62325010703
133649.64445350473
136845.7641232731
116745.54781104461
119018.73563210173
121767.38423393191
124873.18978064237
128182.50110305796
131494.76538574268
134532.0665884494
118470.36281131448
120758.63091860787
123475.88345132131
126463.0083154009
129517.13664794031
132358.0742581912
120174.53937015691
122415.33059540029
125013.45178764094
127755.84320435389
130356.77374943174
121798.74047315842
123908.32089152202
126265.21998739685
128569.44367446973
123263.38092225179
125124.55444484572
127052.39586259323
124456.62518224368
125888.855056534
125206.27499489831
SCALARS T float 1
LOOKUP_TABLE default
300.1267560323542
300.12643533795193
300.1790137043312
300.12433547503343
300.1788589811546
300.2554027327266
300.1207430313413
300.17591691259366
300.2555404174658
300.36759981468526
300.1159297926602
300.17070548801945
300.2512174343124
300.36821092785914
300.5333529356405
300.1101695087606
300.1636868901499
300.2433402933601
300.3615553454977
300.53469219804794
300.7800572077911
300.1037320752733
300.1553020230818
300.2327159088729
300.34922659222065
300.52396934144963
300.7824010042597
301.15090658561854
300.096871793673
300.14596843097667
300.22009183608856
300.33266249781616
300.5040631107089
300.76430782843397
301.15418350460783
301.71609583576793
300.089816744376
300.13606748983307
300.2061492838261
300.3131664362161
300.47759767586285
300.7311981730878
301.1220749603579
301.71831830971445
302.59507653609955
300.0827620327412
300.12593271199415
300.19148622269176
300.291880689019
300.4468884567129
300.68799277088874
301.06533121162107
301.6580010292135
302.58625122019146
304.00599375141866
300.075867156134
300.1158430789994
300.17660525412026
300.2697621795222
300.4138715521402
300.6388497464965
300.99340147937335
301.5576985538334
302.46551474889327
303.9448450608768
306.3918890041647
300.0692566712399
300.10602189267803
300.1619111819324
300.24757789968254
300.38008435043895
300.5870465741728
300.91375978787136
301.4358141780317
302.28262351962235
303.68655374322833
306.11349343247434
310.791348581334
300.0630232536679
300.09663997009955
300.1477157001982
300.22591363021417
300.3466856529545
300.5350159309484
300.8318586265434
301.3055581377356
302.07310641241486
303.3436356610289
305.5266117532772
309.6178483486973
320.0387685068699
300.05723199423994
300.0878215040291
300.13424753074185
300.20519688614377
300.3145079284993
300.4844635636475
300.75141142999837
301.1756052346573
301.8591096023545
302.9805724440448
304.87228639177226
308.2376581262174
315.0379883156496
328.08859027505116
300.0519252606917
300.0796512975884
300.1216651536091
300.18572224313436
300.2841135320477
300.43651410546704
300.6747868599111
301.05124109128866
301.65322610446367
302.6299512419192
304.24558447775934
306.999392777343
311.9408330143802
320.8277805083888
334.15283697994244
300.04712761760646
300.07218224655657
300.11006993975576
300.1676776030082
300.25585525744606
300.3918534959269
300.60337450650485
300.9354074633469
301.4619507754606
302.30650567216304
303.67898500985405
305.9451201872745
309.75490390630137
316.20735008325335
326.147389176989
338.9445574693831
300.0428503931332
300.0654427635389
300.0995187137936
300.1511689983556
300.22992848096766
300.35084661854125
300.5378802242529
300.82950834551224
301.28810164889944
302.0156271894385
303.179899881534
305.0573960077942
308.09385358352955
313.02420020751003
320.581192441072
330.82894699421706
342.81947884674514
300.03909583681417
300.0594432719839
300.09003522091734
300.13624112193264
300.2064127201415
300.31363481797075
300.4785552388451
300.7339826237278
301.1323777483675
301.7579841029998
302.7459836792335
304.31077434653406
306.77914892101126
310.67768960783866
316.58799081080224
324.7822425576554
334.8936362611843
345.98636314890257
300.0358608858989
300.0541821287688
300.08161987573766