# vtk DataFile Version 2.0
JuliaCFD
ASCII
DATASET UNSTRUCTURED_GRID

POINTS 1900 float
0.0 0.0 0.005
0.0 0.0416667 0.005
0.0 0.0833333 0.005
0.0 0.125 0.005
0.0 0.166667 0.005
0.0 0.208333 0.005
0.0 0.25 0.005
0.0 0.291667 0.005
0.0 0.333333 0.005
0.0 0.375 0.005
0.0 0.416667 0.005
0.0 0.458333 0.005
0.0 0.5 0.005
0.0 0.541667 0.005
0.0 0.583333 0.005
0.0 0.625 0.005
0.0 0.666667 0.005
0.0 0.708333 0.005
0.0 0.75 0.005
0.0 0.791667 0.005
0.0 0.833333 0.005
0.0 0.875 0.005
0.0 0.916667 0.005
0.0 0.958333 0.005
0.0 1.0 0.005
0.0409575 0.0 0.005
0.0409401 0.0416667 0.005
0.0409227 0.0833333 0.005
0.0409054 0.125 0.005
0.040888 0.166667 0.005
0.0408706 0.208333 0.005
0.0408532 0.25 0.005
0.0408359 0.291667 0.005
0.0408185 0.333333 0.005
0.0408011 0.375 0.005
0.0407838 0.416667 0.005
0.0407664 0.458333 0.005
0.040749 0.5 0.005
0.0407316 0.541667 0.005
0.0407143 0.583333 0.005
0.0406969 0.625 0.005
0.0406795 0.666667 0.005
0.0406621 0.708333 0.005
0.0406448 0.75 0.005
0.0406274 0.791667 0.005
0.04061 0.833333 0.005
0.0405927 0.875 0.005
0.0405753 0.916667 0.005
0.0405579 0.958333 0.005
0.0405405 1.0 0.005
0.0819149 0.0 0.005
0.0818802 0.0416667 0.005
0.0818455 0.0833333 0.005
0.0818107 0.125 0.005
0.081776 0.166667 0.005
0.0817412 0.208333 0.005
0.0817065 0.25 0.005
0.0816717 0.291667 0.005
0.081637 0.333333 0.005
0.0816022 0.375 0.005
0.0815675 0.416667 0.005
0.0815328 0.458333 0.005
0.081498 0.5 0.005
0.0814633 0.541667 0.005
0.0814285 0.583333 0.005
0.0813938 0.625 0.005
0.081359 0.666667 0.005
0.0813243 0.708333 0.005
0.0812895 0.75 0.005
0.0812548 0.791667 0.005
0.0812201 0.833333 0.005
0.0811853 0.875 0.005
0.0811506 0.916667 0.005
0.0811158 0.958333 0.005
0.0810811 1.0 0.005
0.122872 0.0 0.005
0.12282 0.0416667 0.005
0.122768 0.0833333 0.005
0.122716 0.125 0.005
0.122664 0.166667 0.005
0.122612 0.208333 0.005
0.12256 0.25 0.005
0.122508 0.291667 0.005
0.122455 0.333333 0.005
0.122403 0.375 0.005
0.122351 0.416667 0.005
0.122299 0.458333 0.005
0.122247 0.5 0.005
0.122195 0.541667 0.005
0.122143 0.583333 0.005
0.122091 0.625 0.005
0.122039 0.666667 0.005
0.121986 0.708333 0.005
0.121934 0.75 0.005
0.121882 0.791667 0.005
0.12183 0.833333 0.005
0.121778 0.875 0.005
0.121726 0.916667 0.005
0.121674 0.958333 0.005
0.121622 1.0 0.005
0.16383 0.0 0.005
0.16376 0.0416667 0.005
0.163691 0.0833333 0.005
0.163621 0.125 0.005
0.163552 0.166667 0.005
0.163482 0.208333 0.005
0.163413 0.25 0.005
0.163343 0.291667 0.005
0.163274 0.333333 0.005
0.163204 0.375 0.005
0.163135 0.416667 0.005
0.163066 0.458333 0.005
0.162996 0.5 0.005
0.162927 0.541667 0.005
0.162857 0.583333 0.005
0.162788 0.625 0.005
0.162718 0.666667 0.005
0.162649 0.708333 0.005
0.162579 0.75 0.005
0.16251 0.791667 0.005
0.16244 0.833333 0.005
0.162371 0.875 0.005
0.162301 0.916667 0.005
0.162232 0.958333 0.005
0.162162 1.0 0.005
0.204787 0.0 0.005
0.2047 0.0416667 0.005
0.204614 0.0833333 0.005
0.204527 0.125 0.005
0.20444 0.166667 0.005
0.204353 0.208333 0.005
0.204266 0.25 0.005
0.204179 0.291667 0.005
0.204092 0.333333 0.005
0.204006 0.375 0.005
0.203919 0.416667 0.005
0.203832 0.458333 0.005
0.203745 0.5 0.005
0.203658 0.541667 0.005
0.203571 0.583333 0.005
0.203484 0.625 0.005
0.203398 0.666667 0.005
0.203311 0.708333 0.005
0.203224 0.75 0.005
0.203137 0.791667 0.005
0.20305 0.833333 0.005
0.202963 0.875 0.005
0.202876 0.916667 0.005
0.20279 0.958333 0.005
0.202703 1.0 0.005
0.245745 0.0 0.005
0.245641 0.0416667 0.005
0.245536 0.0833333 0.005
0.245432 0.125 0.005
0.245328 0.166667 0.005
0.245224 0.208333 0.005
0.245119 0.25 0.005
0.245015 0.291667 0.005
0.244911 0.333333 0.005
0.244807 0.375 0.005
0.244703 0.416667 0.005
0.244598 0.458333 0.005
0.244494 0.5 0.005
0.24439 0.541667 0.005
0.244286 0.583333 0.005
0.244181 0.625 0.005
0.244077 0.666667 0.005
0.243973 0.708333 0.005
0.243869 0.75 0.005
0.243764 0.791667 0.005
0.24366 0.833333 0.005
0.243556 0.875 0.005
0.243452 0.916667 0.005
0.243347 0.958333 0.005
0.243243 1.0 0.005
0.286702 0.0 0.005
0.286581 0.0416667 0.005
0.286459 0.0833333 0.005
0.286337 0.125 0.005
0.286216 0.166667 0.005
0.286094 0.208333 0.005
0.285973 0.25 0.005
0.285851 0.291667 0.005
0.285729 0.333333 0.005
0.285608 0.375 0.005
0.285486 0.416667 0.005
0.285365 0.458333 0.005
0.285243 0.5 0.005
0.285121 0.541667 0.005
0.285 0.583333 0.005
0.284878 0.625 0.005
0.284757 0.666667 0.005
0.284635 0.708333 0.005
0.284513 0.75 0.005
0.284392 0.791667 0.005
0.28427 0.833333 0.005
0.284149 0.875 0.005
0.284027 0.916667 0.005
0.283905 0.958333 0.005
0.283784 1.0 0.005
0.32766 0.0 0.005
0.327521 0.0416667 0.005
0.327382 0.0833333 0.005
0.327243 0.125 0.005
0.327104 0.166667 0.005
0.326965 0.208333 0.005
0.326826 0.25 0.005
0.326687 0.291667 0.005
0.326548 0.333333 0.005
0.326409 0.375 0.005
0.32627 0.416667 0.005
0.326131 0.458333 0.005
0.325992 0.5 0.005
0.325853 0.541667 0.005
0.325714 0.583333 0.005
0.325575 0.625 0.005
0.325436 0.666667 0.005
0.325297 0.708333 0.005
0.325158 0.75 0.005
0.325019 0.791667 0.005
0.32488 0.833333 0.005
0.324741 0.875 0.005
0.324602 0.916667 0.005
0.324463 0.958333 0.005
0.324324 1.0 0.005
0.368617 0.0 0.005
0.368461 0.0416667 0.005
0.368305 0.0833333 0.005
0.368148 0.125 0.005
0.367992 0.166667 0.005
0.367835 0.208333 0.005
0.367679 0.25 0.005
0.367523 0.291667 0.005
0.367366 0.333333 0.005
0.36721 0.375 0.005
0.367054 0.416667 0.005
0.366897 0.458333 0.005
0.366741 0.5 0.005
0.366585 0.541667 0.005
0.366428 0.583333 0.005
0.366272 0.625 0.005
0.366116 0.666667 0.005
0.365959 0.708333 0.005
0.365803 0.75 0.005
0.365647 0.791667 0.005
0.36549 0.833333 0.005
0.365334 0.875 0.005
0.365178 0.916667 0.005
0.365021 0.958333 0.005
0.364865 1.0 0.005
0.409575 0.0 0.005
0.409401 0.0416667 0.005
0.409227 0.0833333 0.005
0.409054 0.125 0.005
0.40888 0.166667 0.005
0.408706 0.208333 0.005
0.408532 0.25 0.005
0.408359 0.291667 0.005
0.408185 0.333333 0.005
0.408011 0.375 0.005
0.407838 0.416667 0.005
0.407664 0.458333 0.005
0.40749 0.5 0.005
0.407316 0.541667 0.005
0.407143 0.583333 0.005
0.406969 0.625 0.005
0.406795 0.666667 0.005
0.406621 0.708333 0.005
0.406448 0.75 0.005
0.406274 0.791667 0.005
0.4061 0.833333 0.005
0.405927 0.875 0.005
0.405753 0.916667 0.005
0.405579 0.958333 0.005
0.405405 1.0 0.005
0.450532 0.0 0.005
0.450341 0.0416667 0.005
0.45015 0.0833333 0.005
0.449959 0.125 0.005
0.449768 0.166667 0.005
0.449577 0.208333 0.005
0.449386 0.25 0.005
0.449195 0.291667 0.005
0.449003 0.333333 0.005
0.448812 0.375 0.005
0.448621 0.416667 0.005
0.44843 0.458333 0.005
0.448239 0.5 0.005
0.448048 0.541667 0.005
0.447857 0.583333 0.005
0.447666 0.625 0.005
0.447475 0.666667 0.005
0.447284 0.708333 0.005
0.447093 0.75 0.005
0.446901 0.791667 0.005
0.44671 0.833333 0.005
0.446519 0.875 0.005
0.446328 0.916667 0.005
0.446137 0.958333 0.005
0.445946 1.0 0.005
0.49149 0.0 0.005
0.491281 0.0416667 0.005
0.491073 0.0833333 0.005
0.490864 0.125 0.005
0.490656 0.166667 0.005
0.490447 0.208333 0.005
0.490239 0.25 0.005
0.49003 0.291667 0.005
0.489822 0.333333 0.005
0.489613 0.375 0.005
0.489405 0.416667 0.005
0.489197 0.458333 0.005
0.488988 0.5 0.005
0.48878 0.541667 0.005
0.488571 0.583333 0.005
0.488363 0.625 0.005
0.488154 0.666667 0.005
0.487946 0.708333 0.005
0.487737 0.75 0.005
0.487529 0.791667 0.005
0.48732 0.833333 0.005
0.487112 0.875 0.005
0.486903 0.916667 0.005
0.486695 0.958333 0.005
0.486486 1.0 0.005
0.531954 0.00563435 0.005
0.531749 0.0470663 0.005
0.531544 0.0884982 0.005
0.531338 0.12993 0.005
0.531133 0.171362 0.005
0.530928 0.212794 0.005
0.530722 0.254226 0.005
0.530517 0.295658 0.005
0.530312 0.33709 0.005
0.530107 0.378521 0.005
0.529901 0.419953 0.005
0.529696 0.461385 0.005
0.529491 0.502817 0.005
0.529285 0.544249 0.005
0.52908 0.585681 0.005
0.528875 0.627113 0.005
0.528669 0.668545 0.005
0.528464 0.709977 0.005
0.528259 0.751409 0.005
0.528054 0.79284 0.005
0.527848 0.834272 0.005
0.527643 0.875704 0.005
0.527438 0.917136 0.005
0.527232 0.958568 0.005
0.527027 1.0 0.005
0.572289 0.0127465 0.005
0.572093 0.0538821 0.005
0.571896 0.0950177 0.005
0.571699 0.136153 0.005
0.571502 0.177289 0.005
0.571306 0.218424 0.005
0.571109 0.25956 0.005
0.570912 0.300695 0.005
0.570715 0.341831 0.005
0.570519 0.382967 0.005
0.570322 0.424102 0.005
0.570125 0.465238 0.005
0.569928 0.506373 0.005
0.569732 0.547509 0.005
0.569535 0.588644 0.005
0.569338 0.62978 0.005
0.569142 0.670916 0.005
0.568945 0.712051 0.005
0.568748 0.753187 0.005
0.568551 0.794322 0.005
0.568355 0.835458 0.005
0.568158 0.876593 0.005
0.567961 0.917729 0.005
0.567764 0.958864 0.005
0.567568 1.0 0.005
0.612625 0.0198587 0.005
0.612436 0.0606979 0.005
0.612248 0.101537 0.005
0.61206 0.142376 0.005
0.611872 0.183216 0.005
0.611684 0.224055 0.005
0.611496 0.264894 0.005
0.611307 0.305733 0.005
0.611119 0.346572 0.005
0.610931 0.387412 0.005
0.610743 0.428251 0.005
0.610555 0.46909 0.005
0.610366 0.509929 0.005
0.610178 0.550769 0.005
0.60999 0.591608 0.005
0.609802 0.632447 0.005
0.609614 0.673286 0.005
0.609425 0.714125 0.005
0.609237 0.754965 0.005
0.609049 0.795804 0.005
0.608861 0.836643 0.005
0.608673 0.877482 0.005
0.608484 0.918322 0.005
0.608296 0.959161 0.005
0.608108 1.0 0.005
0.65296 0.0269708 0.005
0.65278 0.0675137 0.005
0.652601 0.108057 0.005
0.652421 0.148599 0.005
0.652241 0.189142 0.005
0.652062 0.229685 0.005
0.651882 0.270228 0.005
0.651702 0.310771 0.005
0.651523 0.351314 0.005
0.651343 0.391857 0.005
0.651164 0.4324 0.005
0.650984 0.472943 0.005
0.650804 0.513485 0.005
0.650625 0.554028 0.005
0.650445 0.594571 0.005
0.650265 0.635114 0.005
0.650086 0.675657 0.005
0.649906 0.7162 0.005
0.649726 0.756743 0.005
0.649547 0.797286 0.005
0.649367 0.837828 0.005
0.649188 0.878371 0.005
0.649008 0.918914 0.005
0.648828 0.959457 0.005
0.648649 1.0 0.005
0.693295 0.034083 0.005
0.693124 0.0743295 0.005
0.692953 0.114576 0.005
0.692782 0.154823 0.005
0.692611 0.195069 0.005
0.69244 0.235316 0.005
0.692269 0.275562 0.005
0.692098 0.315809 0.005
0.691926 0.356055 0.005
0.691755 0.396302 0.005
0.691584 0.436548 0.005
[...]
CELL_DATA 888
SCALARS P float 1
LOOKUP_TABLE default
100125.51239062414
100125.17851728426
100177.61311015577
100122.89916358145
100177.48476153359
100254.57157624573
100118.99075860916
100174.3106517623
100254.81600077194
100368.44806850237
100113.75382093129
100168.66174462343
100250.18694710762
100369.32975010636
100537.37797251802
100107.49124447715
100161.04723643376
100241.68274555227
100362.27590471106
100539.32543758309
100788.97146509259
100100.50160329876
100151.9528801138
100230.18958959047
100349.03899095532
100528.11790444826
100792.62194656162
101166.12664193827
100093.06591717734
100141.83869658865
100216.52771225384
100331.19203413515
100506.91187370052
100774.03708445063
101172.14914980675
101737.8000911117
100085.43568992651
100131.12468889637
100201.44463686086
100310.158414414
100478.56336200133
100739.13010589567
101139.79824647891
101745.68249897663
102621.51715064117
100077.82529537613
100120.1776938667
100185.59678156098
100287.18605102597
100445.5865565403
100693.22079499728
101080.71780689906
101685.97105394216
102623.96480200996
104037.75397018268
100070.408990985
100109.30379143042
100169.53584807456
100263.32184759626
100410.08587171523
100640.7944993104
101005.04659190103
101582.90318483874
102505.65781766169
103996.9297501604
106464.48004468868
100063.3216553022
100098.74685813162
100153.7056741723
100239.4061842515
100373.73720462697
100585.3942577851
100920.79223651846
101456.08810342364
102319.77217801785
103742.75941985371
106208.80369599287
111153.74118915728
100056.66223166093
100088.69199543363
100138.44694878624
100216.08146917137
100337.8086264613
100529.66331103648
100833.81945132655
101319.59816915686
102104.00812515039
103395.72295022148
105616.31098325283
109893.23437707439
122178.70295622617
100050.49858538828
100079.27200169383
100124.00806079453
100193.81615842025
100303.21466145891
100475.46856462868
100748.15623031052
101182.7342468397
101881.88273872493
103024.29007177848
104948.81413626517
108426.18457437865
115938.57689516769
132377.53147301343
100044.87301524026
100070.57543817573
100110.55895904612
100172.93169215087
100270.57507476548
100424.0521836274
100666.40540685153
101051.24169508458
101666.90134392385
102663.02863318774
104307.11680480865
107130.97640983033
112391.4743709543
122686.99572974192
140337.31861338127
100039.80784099502
100062.65503283228
100098.20562894206
100153.63085977733
100240.2790125491
100376.18026385871
100590.12352952104
100928.39623796941
101466.19912458437
102327.80188454287
103724.93079869887
106038.88160849384
110010.85751688792
117103.65745618966
129123.90428420035
146760.64041913478
100035.3105966934
100055.53604543651
100087.00406065668
100136.02485373712
100212.54082206382
100332.26656778967
100520.12766368124
100815.83623583124
101283.05181225414
102024.75877872636
103210.02112191706
105122.89984729397
108251.8634764806
113498.80281161479
122084.73400066135
134961.80392744602
152022.65151794883
100031.37875847293
100049.2236237104
100076.97308568118
100120.15594248229
100187.44511639829
100292.47631062857
100456.73518531742
100714.15507070311
101118.47879564222
101755.11777446156
102760.36521108662
104352.55324423853
106879.41746591964
110947.59367787396
117388.71120659234
127009.02158412115
140151.54190263725
156352.59832159834
100028.00401655685
100043.70951107056
100068.10535893845
100106.01814788146
100164.98704292793
100256.80364947669
100399.93120820803
100623.29299030779
100972.21426209736
101517.66315941725
102370.4795308633
103702.45942132628
105774.45556864474
109023.84257495381
114043.51855328763
121461.96138099743
131701.16963672094
144716.27566756442
159908.76832646996
100025.17603603208
100038.9779720979
100060.37673506707
100093.57288468271
100145.10097894039
100225.13205974572
100349.49602505821
100542.81128816732
100843.29554899319
101310.06193438862
102033.91637628645
103152.40124224761
104868.21485998537
107512.73265427788
111529.90196039811
117411.30180018058
125552.11260726825
136070.9708546336
148698.94934387514
162810.5056659908
100022.88615389205
100035.01107732095
100053.75481183035
100082.76317127852
100127.68605742612
100197.27805897233
100305.0906914622
100472.0615981807
100730.42653948
101129.54730368013
101744.27176209183
102686.14868473232
104116.4689984046
106294.94660815276
109567.35227620362
114327.84499118058
120927.73043829773
129542.34050951843
140076.8856041237
152147.14350161367
165152.7173053672
100021.13149603705
100031.79397403097
100048.20605173199
100073.52406124452
100112.62261775513
100173.02442419501
100266.3173766085
100410.29962325978
100632.18356096718
100973.28183636912
101495.61044086132
102290.51232201043
103488.48354949821
105297.60215712168
107994.84413512364
111903.95282244701
117335.83467573406
124487.62843857083
133354.15973056055
143704.3834576308
155107.95626242546
167014.23086060022
100019.9204020456
100029.32115191403
100043.70335866108
100065.79355716129
100099.78917368564
100152.14458386949
100232.76017579966
100356.76290632316
100547.141183422
100838.55069759641
101282.59785848201
101954.63475800511
102961.49081410996
104472.35342299682
106713.27340376866
109954.60876181374
114472.51890443295
120472.39956777319
128006.94613980626
136937.32947381717
146954.6795974872
157626.6725123017
168462.60419461792
100019.2814887759
100027.60533187346
100040.23540791645
100059.52249085621
100089.07440514932
100134.42149620992
100204.01513530429
100310.71187979718
100473.9488983601
100722.85634553681
101100.5336859374
101669.50689615625
102517.98438805889
103784.96143919275
105657.0461681704
108362.42920392132
112146.5119014927
117215.22943446979
123662.90500728528
131421.10024545604
140261.32695916606
149839.10858222912
159746.55383707778
169557.03344560438
100026.69280433889
100037.82023881955
100054.68812819618
100080.39205116697
100119.66394177213
100179.71273255502
100271.4650933868
100411.3684175556
100623.95196183817
100945.32261970472
101427.61623614602
102144.142598683
103209.87778471291
104780.10552361341
107048.45565032045
110232.37944010989
114532.60769798067
120072.6860289433
126842.99176386489
134682.30086770697
143309.42320795043
152374.24815325905
161508.38015843387
170347.09844587263
100036.52890809186
100051.31384580008
100073.69839911727
100107.72497317888
100159.53727368765
100238.41947248712
100358.2981110921
100539.86225108572
100813.44165235218
101222.67369184278
101828.80808429151
102727.44098217225
104048.45486473039
105956.57712473023
108643.64277215506
112300.49523155621
117069.08157754625
122988.00850715284
129958.93844954304
137756.3436808111
146075.349125273
154580.74291813004
162949.94207803733
170879.14297269387
100049.50360535369
100069.02091934536
100098.52582845338
100143.24682143767
100211.06932087183
100313.79046028649
100468.88257350559
100701.88035275899
101049.42811134833
101562.90753532034
102322.12214207085
103436.07616134381
105045.08584290343
107317.53536788923
110431.16853895634
114536.78849197677
119709.90670859971
125909.55981024826
132967.79721536822
140620.3752342606
148560.37960160943
156480.86442231596
164107.79948806274
171189.43841086605
100066.50611568881
100092.09441268533
100130.70642049912
100189.03224703547
100277.0653006868
100409.57535690222
100608.10003693216
100903.49321020702
101339.00767537285
101981.46657468492
102922.58563738338
104281.95283301621
106206.63095662631
108859.35941608831
112392.2275563085
116906.35548505018
122409.58734200944
128791.93147613975
135836.05886196095
143260.6027912685
150771.5327869847
158098.6271744197
165012.83562256582
171314.58236688763
100088.63172234477
100121.93819208124
100172.08658977758
100247.53550051495
100360.77529200708
100529.99703016087
100781.23687868002
101151.00724535939
101695.39223744097
102491.72864826134
103641.9494442171
105273.91799970513
107534.6879164557
110571.92209155344
114502.22873034992
119371.96257715084
125125.17731496016
131596.8127039548
138539.00238869706
145670.4872178791
152719.89976745032
159457.6398415743
165697.87557156448
171283.2303991094
100117.21279128715
100160.23990164828
100224.8541473653
100321.61228565768
100465.88946206997
100679.69089611713
100993.90738474886
101455.7163477708
102130.41493244779
103104.88215567032
104489.93087532876
106416.95232743445
109025.47059142041
112439.24785809229
116732.48856139247
121895.89333516723
127817.72984320267
134292.74374383962
141059.35298019706
147848.43695103828
154419.2221363257
160581.3813949367
166189.40072058426
171126.63007453398
100153.85051747497
100209.00071344341
100291.5629491548
100414.5267259109
100596.50738820793
100863.67655169968
101255.78560979749
101828.0347188531
102654.46202114894
103830.8348422359
105473.54813963507
107711.76268298304
110669.98769331022
114440.6570119078
119051.86506075927
124441.69875998543
130452.92065346897
136854.8995889083
143386.25227173814
149798.57662139408
155885.3043697486
161493.82967315326
166515.80516107692
170865.68860869878
100200.44430370102
100270.56250905473
100375.14936797402
100529.94433807404
100757.14057547353
101090.25728710512
101576.00360125364
102277.47066038194
103277.23021900252
104677.68376409374
106596.53477159758
109154.61287548389
112454.43006706233
116551.87195678373
121428.27870980305
126975.20481901386
133001.5246016603
139264.9889995357
145514.33533772765
151527.7713645958
157134.95302630446
162218.5230778645
166701.6542883195
170530.98487416992
100259.2204927359
100347.63126879376
100478.9437045833
100671.9588010719
100954.95230681078
101367.45269976405
101963.20081229047
102813.24578811481
104007.21182232352
105651.0715217977
107859.00901693247
110737.38016968628
114360.98981656025
118746.2330728304
123830.05895197256
129465.66402914048
135439.6206478681
141509.08547774557
147442.20767882434
153046.86120065974
158186.94670422954
162778.40313864147
166772.8299505846
170143.03901555095
100332.75821685401
100443.2988178007
100606.70897406602
100846.81091520682
101197.01633362981
101703.06831319639
102425.98353049523
103443.86119861304
104851.20245064277
106753.8374801687
109257.32882834336
112447.96031581564
116368.65376173251
120995.89937808027
126227.00176414601
131885.56870326833
137748.25847108057
143580.07428297482
149173.0642433934
154367.58458366786
159059.97916650685
163195.89249731085
166754.06648958457
169732.12336805227
100424.01874969911
100561.09392831997
100763.96583176745
101060.77564807936
101490.37117477984
102105.04594373566
102972.57682139675
104176.6229113185
105813.82580480659
107985.70894833223
110784.11361225025
114270.66842276447
118454.15996625938
123272.88791170524
128591.15406725484
134212.6510950707
139912.5276186832
145472.85496312336
150712.39409722522
155503.30497243776
159773.57539223312
163495.31636192047
166672.84076633057
169331.06794085845
100536.40154598198
100706.01563988999
100956.34815517427
101320.22281735692
101842.30716092397
102581.19708315658
103610.46614512813
105017.30509871783
106897.2153788779
109343.07758732524
112428.49162804728
116187.00457942432
120592.80432435947
125550.02047125349
130896.78932403035
136427.33305001902
141923.05555145067
147187.12843734966
152068.30028728835
156469.50099073522
160347.4715131117
163700.68639937733
166558.7203842021
168990.47330647268
100674.6185955715
100883.23663755295
101189.67330684353
101631.83964540184
102260.14104477658
103138.88898294965
104345.99882214051
105969.7034155685
108100.73191921636
110819.1529131257
114176.38334848902
118176.21689322159
122759.55918168223
127801.24229695438
133122.05678465
138513.9007486615
143772.224016159
148725.15185077657
153250.5621686312
157281.75526901442
160802.64235232654
163837.3587552286
166448.3525799673
168768.9917606629
100843.57420093047
101098.15946807593
101470.11311932704
102002.45343331348
102750.99096074204
103784.72564085174
105184.04356525851
107035.32557262195
109420.82229280965
112403.89153174375
116011.09418441125
120215.71522697873
124929.05423606957
130002.73883438579
135247.48540267104
140460.79412844614
145456.91511967007
150090.91352443487
154269.8172097348
157955.7835485839
161158.61482545466
163929.34219521986
166376.84532460588
101048.43804274753
101356.55059413602
101804.04017178176
102438.82991337984
103321.4531608509
104524.21289683926
106127.679421842
108213.1816720264
110850.95810598801
114084.41396607099
117913.67114911608
122282.95402940393
127077.2986890063
132132.55167292684
137256.70332698076
142258.76093545396
146975.21654946188
151288.8219943602
155136.01382895937
158505.03940721735
161429.04362368406
163989.76073990256
101294.74066410188
101664.42736936471
102197.86658837716
102947.43254451297
103977.32415480068
105361.40924059422
107177.8013490509
109499.6226947163
112381.76214607146
115845.31854560695
119863.58789766942
124354.02289558292
129180.88063854196
134170.9561870464
139135.49786295832
143900.25413422156
148326.1852222217
152324.06398833144
155855.9145285808
158932.9361840371
161605.47883921204
101588.27556168665
102027.89336733025
102657.83398564925
103534.13348158331
104723.30654294322
106298.62438005347
108332.999859033
110888.17897330396
114000.80855207924
117668.56155278998
121838.57345219022
126405.11383208908
131217.64047430942
136099.32158334108
140871.08101560944
145378.55877094064
149507.7429229458
153195.15172888877
156423.73104615422
159211.50087091897
101934.96519076786
102452.96691892525
103189.7660020977
104203.94915124436
105562.65830024943
107336.17607155132
109589.34230074797
112369.72471200486
115693.65203979485
119534.61448442824
123816.12163906526
128413.22885154675
133166.16337985836
137900.21561285763
142450.95327812596
146684.56216042693
150511.80133211744
153886.36631858852
156792.33953685407
102340.67037917841
102945.36725706173
103798.80906919992
104960.76113868036
106496.91094999926
108472.07824733105
110940.22526046942
113932.06766243344
117442.88284022086
121422.32429532384
125772.44936022804
130354.78171599557
135005.07769305073
139556.17172859923
143859.89428375507
147803.0069805691
151311.7918140385
154334.4724428201
102811.0135579845
103510.25891101308
104489.18008424118
105806.95152523382
107525.63270621635
109701.90639213205
112376.1721725226
115560.72499483741
119228.70907948844
123307.81283087397
127682.97976136318
132205.32024668186
136711.78459809584
141045.65266528653
145074.84647103766
148698.0341025884
151829.5954987152
103351.14208727727
104151.99584012816
105263.80633303565
106743.14128443756
108645.94350688884
111018.33411245543
113884.95334690748
117238.12148794103
121029.30622575925
125166.9254409037
129521.03949518416
133938.1996156761
138259.31126503795
142338.05604718864
146049.7215889926
149275.55044779798
103965.45295906896
104873.84601897254
106124.0829026746
107767.93087148141
109852.78009659557
112411.45781939574
115451.22605006665
118943.78235336665
122820.03432367793
126971.00585346262
131256.50622581504
135521.3421901896
139610.20487369256
143378.4979685829
146677.99202373598
104657.33626824005
105677.65059144287
107069.56227286629
108877.49891186596
111137.822143405
113867.93124027063
117056.39271644628
120653.89521360518
124572.51587297436
128688.55520700167
132854.28923424685
136911.25510697204
140701.0392741473
144048.1854631846
105428.87517648652
106563.53805573516
108097.37388030997
110065.10546421297
112489.5855121536
115370.94462932763
118677.67782212207
122340.44030869871
126253.68310130417
130280.42421549221
134264.74387415344
138037.76386672296
141402.64344332457
106280.45747526007
107529.49747403729
109202.33896976252
111321.27966092665
113893.15584548641
116899.45055498325
120287.88753424247
123969.71812660573
127821.7671421323
131693.7169677493
135411.2715989688
138761.76797523492
107210.52482939116
108571.01376372756
110375.86297369533
112632.22563743705
115329.06087888882
118427.3317446077
121853.60584474631
125498.98814176384
129221.15574850251
132845.9631362804
136148.5081686793
108215.00531694025
109680.624371325
111605.87330959665
113980.25678521163
116772.53696305086
119921.63206617584
123331.5674957519
126870.43009374556
130366.29797023961
133587.41128867056
109286.95812665376
110847.19443801232
112875.8113371526
115341.88662058148
118191.61815517783
121339.33302809313
124662.87433951396
127995.7306202463
131102.90615761187
110415.79857451454
112055.1671514037
114163.53064375892
116686.2697498644
119543.78173753986
122621.52893430773
125758.48823513028
128720.18288909704
111586.51892341628
113283.39693094313
115439.24822829504
117972.31049626193
120770.93806110225
123679.3379418411
126464.21302698176
112778.65908431727
114503.36096296753
116663.42767441408
119142.84676994411
121785.89736560412
124361.08044342065
113964.38769666855
115676.26940187307
117780.01095639066
120112.26985656959
122440.07420574773
115105.66516116413
116747.86641911937
118706.08785114205
120737.52748224844
116149.1981318552
117637.39829187351
119303.05530026401
117015.58630474607
118210.49774222683
117573.70635248595
SCALARS T float 1
LOOKUP_TABLE default
300.1083336172118
300.10802786825036
300.1537267225778
300.10603790526807
300.15357580064614
300.22115571453617
300.1026376335069
300.15078015280835
300.2212774174189
300.3216621411595
300.0980884814041
300.14583506658374
300.21715020542143
300.3222265389043
300.47215659072424
300.0926543362969
300.1391853025067
300.2096436058157
300.31583675103076
300.4734040792779
300.6989284109821
300.0865951731078
300.13125625030125
300.19953613883007
300.304028387533
300.4630509425019
300.7011168966254
301.0437155376913
300.0801552791538
300.1224505817955
300.1875507400393
300.28819381761815
300.4438859286377
300.6835542185253
301.04675204609845
301.57481954509404
300.07355278809655
300.1131351320029
300.1743458347218
300.26959727648205
300.4184604641539
300.65151916153445
301.01543300277376
301.576698370734
302.40930473747784
300.0669731242939
300.10362926827673
300.16049783926906
300.24934574290364
300.3890273944832
300.6098143818334
300.96027821171344
301.5176030838283
302.4000425132806
303.7625169289937
300.0605665356085
300.09419841198877
300.146488997984
300.228363856683
300.3574678044135
300.56249722652734
300.8905414096939
301.41969584349226
302.28126866635347
303.7009463149228
306.0747934145662
300.054448881502
300.0850530616239
300.1327050457961
300.20738903743256
300.3252704177928
300.51275919000255
300.81353349033594
301.3010506269654
302.1020398216523
303.4458845230403
305.7963478015298
310.38379939819936
300.048704759194
300.0763520990262
300.1194400175143
300.186980259005
300.2935512199133
300.4629599244763
300.73457320704097
301.17461479973093
301.8973299519492
303.1085732493639
305.21472881447454
309.21125686555104
319.52930694788273
300.04339182759225
300.0682087130398
300.10690644435897
300.16754082104575
300.2631050410143
300.41474345321313
300.65726580681144
301.0488594241062
301.6888731068902
302.7525940638597
304.56877748360074
307.8389351048389
314.52938273081
327.4746406478941
300.0385456651204
300.0606976428855
300.09524807144203
300.1493435679069
300.23446138468796
300.36918240003325
300.583892664006
300.92891378469216
301.4889633548465
302.40992495589757
303.9522381958551
306.6123325282252
311.441369778509
320.2096278375196
333.4310552914084
300.03418466104154
300.0538626428942
300.08455294590533
300.132557009432
300.2079443348322
300.3269187347003
300.51577280321607
300.8175997103965
301.3038792135697
302.09488774307
303.3967715406502
305.57185451958713
309.26963174218014
315.59572586189887
325.41339354804495
338.1095790252247
300.0303145376261
300.0477238454547
300.07486589764085
300.11726988782516
300.18372415418855
300.28828014174434
300.45355481824873
300.71622867598444
301.136281051306
301.812591170809
302.90926250559636
304.6990472028361
307.6257332860131
312.4267220671705
319.84781513467533
329.97239388002583
341.86493290786046
300.02693244840776
300.0422841933855
300.06619989318557
300.1035115480831
300.1618584820631
300.25337630042645
300.39744292944044
300.62516726284434
300.98675129079794
301.5635059208522
302.4870151706701
303.96781096963633
306.32979884394945
310.09919280720186
315.86567983520507
323.91831965243324
333.90722043906305
344.9052447529746
300.0240306663999
300.03753526844923
300.0585456654819