# vtk DataFile Version 2.0
JuliaCFD
ASCII
DATASET UNSTRUCTURED_GRID

POINTS 1900 float
0.0 0.0 0.005
0.0 0.0416667 0.005
0.0 0.0833333 0.005
0.0 0.125 0.005
0.0 0.166667 0.005
0.0 0.208333 0.005
0.0 0.25 0.005
0.0 0.291667 0.005
0.0 0.333333 0.005
0.0 0.375 0.005
0.0 0.416667 0.005
0.0 0.458333 0.005
0.0 0.5 0.005
0.0 0.541667 0.005
0.0 0.583333 0.005
0.0 0.625 0.005
0.0 0.666667 0.005
0.0 0.708333 0.005
0.0 0.75 0.005
0.0 0.791667 0.005
0.0 0.833333 0.005
0.0 0.875 0.005
0.0 0.916667 0.005
0.0 0.958333 0.005
0.0 1.0 0.005
0.0409575 0.0 0.005
0.0409401 0.0416667 0.005
0.0409227 0.0833333 0.005
0.0409054 0.125 0.005
0.040888 0.166667 0.005
0.0408706 0.208333 0.005
0.0408532 0.25 0.005
0.0408359 0.291667 0.005
0.0408185 0.333333 0.005
0.0408011 0.375 0.005
0.0407838 0.416667 0.005
0.0407664 0.458333 0.005
0.040749 0.5 0.005
0.0407316 0.541667 0.005
0.0407143 0.583333 0.005
0.0406969 0.625 0.005
0.0406795 0.666667 0.005
0.0406621 0.708333 0.005
0.0406448 0.75 0.005
0.0406274 0.791667 0.005
0.04061 0.833333 0.005
0.0405927 0.875 0.005
0.0405753 0.916667 0.005
0.0405579 0.958333 0.005
0.0405405 1.0 0.005
0.0819149 0.0 0.005
0.0818802 0.0416667 0.005
0.0818455 0.0833333 0.005
0.0818107 0.125 0.005
0.081776 0.166667 0.005
0.0817412 0.208333 0.005
0.0817065 0.25 0.005
0.0816717 0.291667 0.005
0.081637 0.333333 0.005
0.0816022 0.375 0.005
0.0815675 0.416667 0.005
0.0815328 0.458333 0.005
0.081498 0.5 0.005
0.0814633 0.541667 0.005
0.0814285 0.583333 0.005
0.0813938 0.625 0.005
0.081359 0.666667 0.005
0.0813243 0.708333 0.005
0.0812895 0.75 0.005
0.0812548 0.791667 0.005
0.0812201 0.833333 0.005
0.0811853 0.875 0.005
0.0811506 0.916667 0.005
0.0811158 0.958333 0.005
0.0810811 1.0 0.005
0.122872 0.0 0.005
0.12282 0.0416667 0.005
0.122768 0.0833333 0.005
0.122716 0.125 0.005
0.122664 0.166667 0.005
0.122612 0.208333 0.005
0.12256 0.25 0.005
0.122508 0.291667 0.005
0.122455 0.333333 0.005
0.122403 0.375 0.005
0.122351 0.416667 0.005
0.122299 0.458333 0.005
0.122247 0.5 0.005
0.122195 0.541667 0.005
0.122143 0.583333 0.005
0.122091 0.625 0.005
0.122039 0.666667 0.005
0.121986 0.708333 0.005
0.121934 0.75 0.005
0.121882 0.791667 0.005
0.12183 0.833333 0.005
0.121778 0.875 0.005
0.121726 0.916667 0.005
0.121674 0.958333 0.005
0.121622 1.0 0.005
0.16383 0.0 0.005
0.16376 0.0416667 0.005
0.163691 0.0833333 0.005
0.163621 0.125 0.005
0.163552 0.166667 0.005
0.163482 0.208333 0.005
0.163413 0.25 0.005
0.163343 0.291667 0.005
0.163274 0.333333 0.005
0.163204 0.375 0.005
0.163135 0.416667 0.005
0.163066 0.458333 0.005
0.162996 0.5 0.005
0.162927 0.541667 0.005
0.162857 0.583333 0.005
0.162788 0.625 0.005
0.162718 0.666667 0.005
0.162649 0.708333 0.005
0.162579 0.75 0.005
0.16251 0.791667 0.005
0.16244 0.833333 0.005
0.162371 0.875 0.005
0.162301 0.916667 0.005
0.162232 0.958333 0.005
0.162162 1.0 0.005
0.204787 0.0 0.005
0.2047 0.0416667 0.005
0.204614 0.0833333 0.005
0.204527 0.125 0.005
0.20444 0.166667 0.005
0.204353 0.208333 0.005
0.204266 0.25 0.005
0.204179 0.291667 0.005
0.204092 0.333333 0.005
0.204006 0.375 0.005
0.203919 0.416667 0.005
0.203832 0.458333 0.005
0.203745 0.5 0.005
0.203658 0.541667 0.005
0.203571 0.583333 0.005
0.203484 0.625 0.005
0.203398 0.666667 0.005
0.203311 0.708333 0.005
0.203224 0.75 0.005
0.203137 0.791667 0.005
0.20305 0.833333 0.005
0.202963 0.875 0.005
0.202876 0.916667 0.005
0.20279 0.958333 0.005
0.202703 1.0 0.005
0.245745 0.0 0.005
0.245641 0.0416667 0.005
0.245536 0.0833333 0.005
0.245432 0.125 0.005
0.245328 0.166667 0.005
0.245224 0.208333 0.005
0.245119 0.25 0.005
0.245015 0.291667 0.005
0.244911 0.333333 0.005
0.244807 0.375 0.005
0.244703 0.416667 0.005
0.244598 0.458333 0.005
0.244494 0.5 0.005
0.24439 0.541667 0.005
0.244286 0.583333 0.005
0.244181 0.625 0.005
0.244077 0.666667 0.005
0.243973 0.708333 0.005
0.243869 0.75 0.005
0.243764 0.791667 0.005
0.24366 0.833333 0.005
0.243556 0.875 0.005
0.243452 0.916667 0.005
0.243347 0.958333 0.005
0.243243 1.0 0.005
0.286702 0.0 0.005
0.286581 0.0416667 0.005
0.286459 0.0833333 0.005
0.286337 0.125 0.005
0.286216 0.166667 0.005
0.286094 0.208333 0.005
0.285973 0.25 0.005
0.285851 0.291667 0.005
0.285729 0.333333 0.005
0.285608 0.375 0.005
0.285486 0.416667 0.005
0.285365 0.458333 0.005
0.285243 0.5 0.005
0.285121 0.541667 0.005
0.285 0.583333 0.005
0.284878 0.625 0.005
0.284757 0.666667 0.005
0.284635 0.708333 0.005
0.284513 0.75 0.005
0.284392 0.791667 0.005
0.28427 0.833333 0.005
0.284149 0.875 0.005
0.284027 0.916667 0.005
0.283905 0.958333 0.005
0.283784 1.0 0.005
0.32766 0.0 0.005
0.327521 0.0416667 0.005
0.327382 0.0833333 0.005
0.327243 0.125 0.005
0.327104 0.166667 0.005
0.326965 0.208333 0.005
0.326826 0.25 0.005
0.326687 0.291667 0.005
0.326548 0.333333 0.005
0.326409 0.375 0.005
0.32627 0.416667 0.005
0.326131 0.458333 0.005
0.325992 0.5 0.005
0.325853 0.541667 0.005
0.325714 0.583333 0.005
0.325575 0.625 0.005
0.325436 0.666667 0.005
0.325297 0.708333 0.005
0.325158 0.75 0.005
0.325019 0.791667 0.005
0.32488 0.833333 0.005
0.324741 0.875 0.005
0.324602 0.916667 0.005
0.324463 0.958333 0.005
0.324324 1.0 0.005
0.368617 0.0 0.005
0.368461 0.0416667 0.005
0.368305 0.0833333 0.005
0.368148 0.125 0.005
0.367992 0.166667 0.005
0.367835 0.208333 0.005
0.367679 0.25 0.005
0.367523 0.291667 0.005
0.367366 0.333333 0.005
0.36721 0.375 0.005
0.367054 0.416667 0.005
0.366897 0.458333 0.005
0.366741 0.5 0.005
0.366585 0.541667 0.005
0.366428 0.583333 0.005
0.366272 0.625 0.005
0.366116 0.666667 0.005
0.365959 0.708333 0.005
0.365803 0.75 0.005
0.365647 0.791667 0.005
0.36549 0.833333 0.005
0.365334 0.875 0.005
0.365178 0.916667 0.005
0.365021 0.958333 0.005
0.364865 1.0 0.005
0.409575 0.0 0.005
0.409401 0.0416667 0.005
0.409227 0.0833333 0.005
0.409054 0.125 0.005
0.40888 0.166667 0.005
0.408706 0.208333 0.005
0.408532 0.25 0.005
0.408359 0.291667 0.005
0.408185 0.333333 0.005
0.408011 0.375 0.005
0.407838 0.416667 0.005
0.407664 0.458333 0.005
0.40749 0.5 0.005
0.407316 0.541667 0.005
0.407143 0.583333 0.005
0.406969 0.625 0.005
0.406795 0.666667 0.005
0.406621 0.708333 0.005
0.406448 0.75 0.005
0.406274 0.791667 0.005
0.4061 0.833333 0.005
0.405927 0.875 0.005
0.405753 0.916667 0.005
0.405579 0.958333 0.005
0.405405 1.0 0.005
0.450532 0.0 0.005
0.450341 0.0416667 0.005
0.45015 0.0833333 0.005
0.449959 0.125 0.005
0.449768 0.166667 0.005
0.449577 0.208333 0.005
0.449386 0.25 0.005
0.449195 0.291667 0.005
0.449003 0.333333 0.005
0.448812 0.375 0.005
0.448621 0.416667 0.005
0.44843 0.458333 0.005
0.448239 0.5 0.005
0.448048 0.541667 0.005
0.447857 0.583333 0.005
0.447666 0.625 0.005
0.447475 0.666667 0.005
0.447284 0.708333 0.005
0.447093 0.75 0.005
0.446901 0.791667 0.005
0.44671 0.833333 0.005
0.446519 0.875 0.005
0.446328 0.916667 0.005
0.446137 0.958333 0.005
0.445946 1.0 0.005
0.49149 0.0 0.005
0.491281 0.0416667 0.005
0.491073 0.0833333 0.005
0.490864 0.125 0.005
0.490656 0.166667 0.005
0.490447 0.208333 0.005
0.490239 0.25 0.005
0.49003 0.291667 0.005
0.489822 0.333333 0.005
0.489613 0.375 0.005
0.489405 0.416667 0.005
0.489197 0.458333 0.005
0.488988 0.5 0.005
0.48878 0.541667 0.005
0.488571 0.583333 0.005
0.488363 0.625 0.005
0.488154 0.666667 0.005
0.487946 0.708333 0.005
0.487737 0.75 0.005
0.487529 0.791667 0.005
0.48732 0.833333 0.005
0.487112 0.875 0.005
0.486903 0.916667 0.005
0.486695 0.958333 0.005
0.486486 1.0 0.005
0.531954 0.00563435 0.005
0.531749 0.0470663 0.005
0.531544 0.0884982 0.005
0.531338 0.12993 0.005
0.531133 0.171362 0.005
0.530928 0.212794 0.005
0.530722 0.254226 0.005
0.530517 0.295658 0.005
0.530312 0.33709 0.005
0.530107 0.378521 0.005
0.529901 0.419953 0.005
0.529696 0.461385 0.005
0.529491 0.502817 0.005
0.529285 0.544249 0.005
0.52908 0.585681 0.005
0.528875 0.627113 0.005
0.528669 0.668545 0.005
0.528464 0.709977 0.005
0.528259 0.751409 0.005
0.528054 0.79284 0.005
0.527848 0.834272 0.005
0.527643 0.875704 0.005
0.527438 0.917136 0.005
0.527232 0.958568 0.005
0.527027 1.0 0.005
0.572289 0.0127465 0.005
0.572093 0.0538821 0.005
0.571896 0.0950177 0.005
0.571699 0.136153 0.005
0.571502 0.177289 0.005
0.571306 0.218424 0.005
0.571109 0.25956 0.005
0.570912 0.300695 0.005
0.570715 0.341831 0.005
0.570519 0.382967 0.005
0.570322 0.424102 0.005
0.570125 0.465238 0.005
0.569928 0.506373 0.005
0.569732 0.547509 0.005
0.569535 0.588644 0.005
0.569338 0.62978 0.005
0.569142 0.670916 0.005
0.568945 0.712051 0.005
0.568748 0.753187 0.005
0.568551 0.794322 0.005
0.568355 0.835458 0.005
0.568158 0.876593 0.005
0.567961 0.917729 0.005
0.567764 0.958864 0.005
0.567568 1.0 0.005
0.612625 0.0198587 0.005
0.612436 0.0606979 0.005
0.612248 0.101537 0.005
0.61206 0.142376 0.005
0.611872 0.183216 0.005
0.611684 0.224055 0.005
0.611496 0.264894 0.005
0.611307 0.305733 0.005
0.611119 0.346572 0.005
0.610931 0.387412 0.005
0.610743 0.428251 0.005
0.610555 0.46909 0.005
0.610366 0.509929 0.005
0.610178 0.550769 0.005
0.60999 0.591608 0.005
0.609802 0.632447 0.005
0.609614 0.673286 0.005
0.609425 0.714125 0.005
0.609237 0.754965 0.005
0.609049 0.795804 0.005
0.608861 0.836643 0.005
0.608673 0.877482 0.005
0.608484 0.918322 0.005
0.608296 0.959161 0.005
0.608108 1.0 0.005
0.65296 0.0269708 0.005
0.65278 0.0675137 0.005
0.652601 0.108057 0.005
0.652421 0.148599 0.005
0.652241 0.189142 0.005
0.652062 0.229685 0.005
0.651882 0.270228 0.005
0.651702 0.310771 0.005
0.651523 0.351314 0.005
0.651343 0.391857 0.005
0.651164 0.4324 0.005
0.650984 0.472943 0.005
0.650804 0.513485 0.005
0.650625 0.554028 0.005
0.650445 0.594571 0.005
0.650265 0.635114 0.005
0.650086 0.675657 0.005
0.649906 0.7162 0.005
0.649726 0.756743 0.005
0.649547 0.797286 0.005
0.649367 0.837828 0.005
0.649188 0.878371 0.005
0.649008 0.918914 0.005
0.648828 0.959457 0.005
0.648649 1.0 0.005
0.693295 0.034083 0.005
0.693124 0.0743295 0.005
0.692953 0.114576 0.005
0.692782 0.154823 0.005
0.692611 0.195069 0.005
0.69244 0.235316 0.005
0.692269 0.275562 0.005
0.692098 0.315809 0.005
0.691926 0.356055 0.005
0.691755 0.396302 0.005
0.691584 0.436548 0.005
[...]
CELL_DATA 888
SCALARS P float 1
LOOKUP_TABLE default
100068.23409106633
100067.94839214136
100099.06366466098
100066.2219458117
100098.89598026573
100148.12707515311
100063.30553524183
100096.43265472008
100148.17687428648
100225.51098075864
100059.44818508025
100092.12670953455
100144.44526140984
100225.94983998201
100346.85626719204
100054.90447602453
100086.40107591292
100137.74108796948
100220.02029828649
100347.97950418197
100536.64635690393
100049.92391420559
100079.66676104763
100128.81322606132
100209.18611775897
100338.1794734655
100538.8954309175
100833.89424469958
100044.73681002785
100072.31199300449
100118.36718425006
100194.80897138618
100320.1822580493
100522.08231871376
100837.6481504141
101302.77656292063
100039.54279752316
100064.68499881166
100107.04469369866
100178.1382060143
100296.52337899232
100491.47987994963
100807.55875574965
101307.09749321808
102054.98129985944
100034.50419914864
100057.08052438426
100095.39978798848
100160.26569406764
100269.45430377281
100451.92094380633
100754.30127321738
101250.35294859826
102051.989867702
103303.82020797016
100029.74408579986
100049.73307564198
100083.88381724851
100142.09196458013
100240.84952736471
100407.49398546433
100687.26509039692
101155.26235663226
101937.77473002042
103255.05961983846
105517.92570874203
100025.34799234534
100042.81660499758
100072.84254393539
100124.31730905379
100212.17520597193
100361.4029861497
100613.85529400964
101040.25824413764
101763.00639495756
103007.01703923123
105252.03665422049
109934.14814325106
100021.36814123564
100036.4490415112
100062.52192415246
100107.45038311741
100184.50492887976
100315.99189892267
100539.43715552843
100918.49425432322
101563.50389803767
102675.79812003383
104669.82859624716
108666.69662588935
120586.27863556855
100017.82888401943
100030.69973453881
100053.0800662534
100091.83221501973
100158.5711159723
100272.85830454913
100467.61470015577
100798.54291341863
101361.39503001164
102326.87458795906
104025.31654022742
107219.13313668403
114377.3652407471
130379.37941439319
100014.73259421169
100025.59821850898
100044.60207008639
100077.66411933104
100134.82377837379
100232.99949205006
100400.62224764233
100685.55685411397
101169.14374865421
101992.77993733739
103414.80116435052
105957.79679426734
110869.59465096222
120742.93456114917
137922.5430027802
100012.06542689359
100021.14312559916
100037.11528287163
100065.03695584042
100113.4940553909
100196.9572064264
100339.69046532665
100582.31627197887
100993.07912883094
101687.95269032054
102869.25153965062
104908.52865462634
108538.32446453214
115215.86801907641
126762.320813322
143917.12082715356
100009.80249811907
100017.31071998033
100030.60377993403
100053.95862446184
100094.65018198514
100164.93996146561
100285.34509479125
100490.0350322611
100835.82951072667
101417.49229791755
102394.62852683455
104041.2590847297
106836.69993279551
111675.47251297897
119786.55777682924
132155.27188984305
148740.74658088948
100007.91241046634
100014.06227712057
100025.02138068783
100044.37739505607
100078.24331738247
100136.92533610742
100237.64044177454
100408.93458491357
100697.874909315
101181.80290560397
101987.62958483968
103323.50725689076
105527.44763297582
109196.69732932223
115165.47213564106
124262.89924216137
136878.87092581412
152626.90423311072
100006.36110792823
100011.35049685105
100020.30256226925
100036.20239787633
100064.14723630711
100112.73705472646
100196.32475135686
100338.62606219859
100578.48738415087
100979.00778113607
101641.79802457277
102728.45622908298
104489.65802965638
107351.68693787232
111905.55778248177
118794.47575550163
128475.95454988886
140962.46902021804
155738.74790186124
100005.11503784764
100009.12486814408
100016.37149196258
100029.31929977423
100052.18745849856
100092.10458736322
100160.96434967643
100278.37599859171
100476.30061012089
100806.21569622269
101349.90443620483
102234.7854513183
103653.080646454
105923.81283413219
109485.44824511118
114837.58623861532
122401.74847373292
132342.56538793375
144455.44798770972
158201.29177779757
100004.14391077418
100007.33607153306
100013.14962629139
100023.60354806797
100042.16550869071
100074.70646286097
100131.02782346644
100227.27206155498
100389.66006664005
100660.17601866132
101104.89064066122
101825.37172840029
102972.28465669195
104792.12016001667
107622.39694445986
111859.74030672206
117873.87636295886
125877.16547570078
135828.6646236987
147412.29542004937
160115.65530397109
100003.42333834482
100005.93983177806
100010.56162893727
100018.93004069458
100033.87522069157
100060.20224981161
100105.94497323097
100184.33381413754
100316.82254634693
100537.62534000046
100900.25479141163
101486.27215887727
102415.51549145152
103882.32489854624
106153.3406426608
109550.25549061186
114395.44202113965
120915.04846363356
129149.82444101728
138927.51663837876
149887.69345903705
161567.01498406462
100002.93782428777
100004.90077603697
100008.54073792078
100015.18168908772
100027.11720376194
100048.25535441726
100085.14619567123
100148.58678957388
100256.0771142871
100435.46914048195
100730.16351859902
101205.97552407804
101959.14197577447
103144.87769437964
104977.38087387916
107721.3931874491
111658.50790260354
117015.60245105212
123884.14004187247
132177.86341094997
141648.71696000994
151934.61733117176
162629.2271830876
100002.6852502326
100004.19713495242
100007.03430194281
100012.25629800938
100021.7085471321
100038.54949674426
100068.09001428734
100119.10270555515
100205.81718558833
100350.86918105748
100589.47127156898
100974.89391665928
101584.90084021741
102544.48597890609
104027.38496811748
106253.3877596049
109468.2613127392
113892.42169706106
119651.77574401777
126724.76939506362
134939.4869134775
144012.27179147094
153603.94617788054
163367.5650082364
100003.82819196931
100006.01082833957
100010.07439072029
100017.49256897696
100030.8011418415
100054.28197659981
100095.02996646984
100164.57516354753
100281.27429891654
100473.68420815203
100784.99657850989
101278.29005403449
102054.68954992939
103255.95233519966
105065.21243948277
107696.1364647343
111357.61755029316
116197.56042958869
122247.21025753181
129398.16184729221
137427.11066979726
146043.46231834884
154943.8447050611
163837.48336671517
100005.4715391695
100008.58933949967
100014.34868629057
100024.77108475639
100043.28835596095
100075.60987235824
100131.04233987092
100224.43455202469
100378.91891247821
100629.52897396559
101027.54864277625
101655.00692248935
102627.91107065754
104098.96925214001
106252.90934095594
109283.24349753722
113349.23609811494
118523.73321568203
124756.9967790522
131879.8029728315
139644.04263281348
147771.39587228087
155999.15474840204
164090.46633921895
100007.80452779379
100012.20711090851
100020.27745487844
100034.747866454
100060.18846172038
100104.07958051703
100178.39502338297
100301.8392336717
100502.81658504045
100823.05634182203
101329.17946290615
102116.21139132166
103311.39380096064
105073.41278993692
107578.04779827005
110986.86356410461
115402.55228205939
120827.46696162164
127147.87418556261
134156.59900659544
141600.95625833012
149226.53095842802
156812.87316264966
164167.8520343391
100011.07326858977
100017.2155035932
100028.38901515005
100048.22973407852
100082.72153397802
100141.48503942587
100239.6074493342
100400.08883204855
100656.88100125591
101064.09128279469
101699.54832944901
102669.08715485218
104108.12731378003
106173.64175726549
109022.5998392909
112776.20350297338
117479.28721335328
123072.74062235092
129396.64682318977
136224.94772015355
143313.99491446075
150440.37070540548
157421.51184585376
164109.8196414307
100015.59236299059
100024.05577951082
100039.33377265494
100066.18622719697
100112.310413939
100189.83825941931
100317.3575185008
100522.46505442249
100849.06257721737
101360.84122455759
102145.6149107319
103318.21333165851
105016.86429136463
107389.0515571942
110564.65169666168
114620.01009988687
119545.19450429114
125231.51118476191
131488.92390909864
138088.14459247168
144802.7579142506
151443.16750486518
157862.74981060807
163948.47589617028
100021.75659404986
100033.27174785771
100053.89590026405
100089.75528994542
100150.5680805097
100251.31478944255
100414.38731519636
100675.35779701303
101086.24996007945
101719.71714013597
102672.58573365484
104065.076085578
106032.27096941142
108704.97057326016
112180.13293150901
116488.28790403083
121571.22822080259
127283.10771015365
133417.97811518438
139753.989733272
146088.61863638836
152264.00481673444
158166.69799114112
163716.66321067503
100030.05251728398
100045.52046455842
100073.00082546346
100120.23945261861
100199.26726701888
100328.20390931382
100535.80871695229
100864.48217321598
101374.14120494516
102145.99186058895
103283.5126031547
104907.9536767123
107145.3759387608
110103.89661683781
113844.38128549358
118353.76625977168
123533.80037205727
129213.48209370588
135183.15986424594
141235.26273089353
147193.9639527466
152931.3906289373
158364.28608878018
163436.49315809956
100041.06878033392
100061.58107281289
100097.71786587239
100159.09309612773
100260.3189449064
100424.5729370395
100686.31580994178
101094.79457844817
101717.75960903821
102643.4751622834
103978.99797106975
105842.0234869284
108344.17542610814
111566.66700699941
115533.50061944216
120192.62083655334
125414.87414203098
131015.21856529645
136788.64357988545
142546.45094870526
148140.9503941085
153472.09576886028
158481.36184012814
163137.92066563226
100055.50569319498
100082.36178610886
100129.26018741693
100207.9221223479
100336.95242290113
100544.25735840222
100870.15547576964
101370.879288558
102121.13088098845
103214.16199901178
104757.15392079463
106859.68164868614
109614.52993679846
113073.55453282877
117225.43633466278
121985.24059945763
127201.67029581773
132684.7638298706
138241.60199599934
143704.7884176834
148952.4702396969
153910.92211882785
158543.51463113152
162839.61192463126
100074.18382758455
100108.90674374193
100168.99603244719
100269.29791476135
100432.29415135241
100690.84793983682
101091.38903336079
101696.68278881954
102587.02334407084
103858.13705082987
105613.71551520472
107951.09746499795
110940.9956875381
114605.31912089123
118900.70719981348
123715.62587984555
128886.33350148011
134224.60313192126
139552.78427585188
144727.03028321936
149649.81860983028
154270.43029787933
158573.62140591803
162567.162364548
100098.0553979524
100142.41718983615
100218.9978493389
100345.76749585538
100549.35252484647
100867.87303270873
101353.6893724369
102075.26088320199
103116.73949721147
104573.53720107402
106542.28425133062
109104.73687571456
112307.68061600756
116143.98920716517
120542.83974380021
125372.96517407098
130464.48751798364
135638.16727156003
140733.81014857176
145630.0498082049
150253.54370988318
154573.65944484837
158594.85845901739
162345.0890315696
100128.23015137043
100184.6137366833
100281.36156536586
100439.84823685235
100691.15248076568
101078.64463314472
101660.15000934499
102508.63745900778
103710.04761954794
105356.60353435474
107534.7470786233
110308.10107042172
113698.89224672563
117673.48300934822
122137.9668779808
126949.03718115248
131936.45543745748
136932.64086221388
141797.44280121004
146431.36206759053
150782.59492626705
154840.74526885868
158628.1832576972
162203.87085278094
100166.23672746099
100237.2730472559
100358.2083819067
100554.11649855909
100860.6131137298
101326.0998048919
102013.10338933086
102997.63839252683
104365.17095153914
106201.99779264962
108581.6468162915
111548.25390816583
115100.00739309278
119179.61928565445
123676.03814389106
128438.88311020813
133303.2222347836
138116.23090535298
142756.6290441404
147146.7738507313
151255.00938760967
155089.21793364527
158691.68332009466
162152.48417604133
100213.67138453732
100302.22580910886
100451.74097998155
100691.11449543043
101060.43396221907
101612.65831624602
102414.00141407152
103541.83878906384
105078.87207235889
107102.9440107887
109672.76316377004
112812.08399639293
116497.18561803433
120650.76457383092
125149.27253451849
129840.82974437592
134569.16199534136
139197.46924870706
143623.45743872592
147790.05532827863
151683.4666615333
155325.58790195105
158772.90762079338
100272.20181165327
100381.39058393454
100564.1698120894
100853.25967035034
101292.95505149651
101940.09575945574
102863.34742232035
104139.59241719064
105846.61871157264
108051.69425489553
110797.44564147021
114087.84350085567
117878.7352612628
122077.30512224535
126552.44468055532
131154.54508124106
135738.47203887592
140183.57531290204
144407.2076327647
148369.16087955592
152065.88551362805
155519.12637736113
100343.58402561645
100476.72219802543
100697.64200900166
101042.74017014258
101560.05619076874
102309.44208936446
103360.5933931147
104788.10512473577
106662.83227650047
109039.85475259088
111945.13252457877
115363.74220535037
119233.99931070358
123451.75940236906
127881.76881362314
132380.36913913584
136814.8063687717
141080.88961773075
145110.75816228436
148873.80075095454
152353.8532888491
100429.61829687256
100590.14392838746
100854.15703279228
101261.41376270066
101863.07370040847
102720.92430397692
103904.22850119736
105483.50381818658
107520.8584194342
110058.32999344113
113105.09461243004
116628.94739853783
120553.92543077178
124767.39579212281
129134.07120616826
133518.18453866453
137799.02732627586
141885.82126790143
145717.25593289724
149240.48882713277
100532.09641003248
100723.48525459686
101035.48636097212
101510.73005554616
102202.71249885205
103173.96448658503
104491.81132197655
106221.12305537889
108413.89941669817
111098.22800868565
114267.60128367871
117874.05258176338
121830.29001576894
126018.19900503964
130305.6240033661
134563.9652666273
138683.4139170772
142574.4291522348
146148.743469611
100652.73541538203
100878.41193553283
101243.09540913174
101791.67311978537
102579.0076675341
103667.16048572025
105120.05971207778
106995.32289410914
109334.2895136934
112150.75900126692
115422.8463757071
119089.77555279166
123054.91251156853
127197.59663690628
131388.8793297693
135505.56609514137
139436.32961059673
143058.27074823587
100793.12464311505
101056.35781610062
101478.09348712776
102104.6790741443
102991.34257461653
104198.37319381298
105784.84144975882
107800.19284927775
110273.9726014953
113206.13503122998
116561.29815027324
120266.46923806639
124218.35865549452
128294.57731134989
132366.96914497265
136306.0392347426
139960.70760925577
100954.66167664323
101258.46476182347
101741.15163224486
102449.62324444132
103438.30712350117
104764.57327864187
106481.44292754632
108629.01923589261
111224.78626787433
114255.6118645739
117672.4850895213
121392.84778234067
125306.90545665062
129288.15520177914
133196.9345033472
136858.8252940419
101138.49112151931
101485.53763610125
102032.4900632756
102825.82488090586
103918.07771344633
105362.26938645318
107204.42670215103
109474.52680621692
112177.83566523361
115287.8737694007
118743.62204670536
122452.84907421956
126296.54492664298
130131.38637829809
133767.33839650577
101345.46102143187
101737.98747417387
102351.86671556941
103232.00484550491
104427.88853699865
105987.07808070749
107947.66234089999
110328.55176389984
113122.69623969933
116290.42052790649
119758.38405666608
123420.24347325723
127136.94647850096
130708.62981513975
101576.0816691311
102015.81479389784
102698.39486965412
103666.13520583756
104964.27828404694
106633.86413611118
108703.74050033782
111181.40849730671
114046.75706174146
117245.50107463048
120688.1242285256
124243.54393901564
127710.71090352448
101830.45908851564
102318.53746175279
103070.8348486535
104125.80628927509
105523.1333492518
107296.35249084956
109463.88022769216
112020.91360359316
114931.91231638262
118124.75820643643
121480.58434288584
124804.32329153774
102108.30929949819
102645.15717729746
103467.08600829162
104607.39148065796
106099.13966111634
107966.7323920016
110216.83396765961
112829.80630449869
115750.40005603169
118875.55131168955
122020.19065764821
102408.83476051611
102994.13420195531
103884.43393217323
105106.59228122467
106685.47977997703
108634.59802984087
110946.2854186731
113581.14357971193
116451.60446867761
119386.96172806049
102730.73078722492
103363.18178069519
104319.15331505245
105617.4534268799
107272.81799264903
109284.88581541859
111626.68848701843
114226.14660410951
116928.73044124412
103071.95971163902
103749.07580621258
104766.10944893451
106131.63232553884
107847.26254504717
109893.97050713439
112212.49313172216
114665.44101569115
103429.56401257908
104147.2607844847
105217.7853657927
106636.8374361856
108387.33040228194
110419.75024662816
112611.79060877138
103799.36650977423
104551.10420178606
105663.38862421899
107113.49489674994
108855.0873341135
110778.53117790096
104175.17994732904
104950.53821821717
106084.9857389955
107527.09821740251
109174.51282692724
104547.55745298279
105329.4594916559
106451.77792922258
107810.18707101754
104901.34915785003
105659.81249990099
106702.9716813469
105210.04743146812
105886.19808373835
105421.8078241647
SCALARS T float 1
LOOKUP_TABLE default
300.05891619767993
300.0586580963659
300.08579783733325
300.05715376965355
300.0856256508922
300.12881262409206
300.0546203565345
300.0834617549541
300.1287919460105
300.19714154881547
300.0512742444541
300.0796993816477
300.1254773844271
300.19737440963553
300.30527375914045
300.0473367826675
300.07470758499136
300.1195740964406
300.1920320206862
300.30590922350484
300.47635767127366
300.04302470194284
300.068845499803
300.1117393226889
300.18239840224743
300.2969235217177
300.4775309324277
300.7480844806211
300.03853770816755
300.06245198990086
300.10259331770874
300.16967741004333
300.2807274965362
300.46179521982515
300.7495431259944
301.18362600147987
300.03404851484805
300.0558302660913
300.0926994267949
300.15497544601504
300.25958268293596
300.4338606193886
300.72074867894526
301.183174050682
301.89377221897536
300.02969717099234
300.0492361278643
300.08254234789706
300.1392572574901
300.23549961032467
300.3980812101877
300.6713467313948
301.1277206681259
301.881254948817
303.08681828495116
300.02558950189405
300.04287227034087
300.0725150678254
300.1233146739336
300.2101462693415
300.35814099937653
300.6098860848368
301.03803179741186
301.7679875791413
303.0210785605368
305.1968682160605
300.02179872305123
300.03688828652673
300.0629168259776
300.10775924819177
300.18481832158335
300.3169115031227
300.54309936711815
300.9310534612693
301.6006921771815
302.77466143595626
304.913888064336
309.26101916038624
300.01836920760894
300.0313848830795
300.0539588147216
300.0930311679968
300.16045509784277
300.2764727882389
300.4758259459423
300.8188376060344
301.41252590545974
302.45478737172255
304.3458562769493
308.08464125384876
318.13627884677334
300.01532127785555
300.0264205790375
300.04577523177073
300.07942186765234
300.1376885839818
300.238221695449
300.4112698879607
300.7091478149966
301.2238629161659
302.1221887152665
303.7249327879971
306.73190945398676
313.12924306566117
325.81248013982594
300.0126563554292
300.02201948195034
300.03843670786176
300.0670998447441
300.11689881409734
300.2030106469097
300.35137166622906
300.6065479828391
301.0459827171442
301.80687375844025
303.14074911384364
305.5390255238494
310.0624543289469
318.5229640164909
331.5012748530865
300.0103619677048
300.0181791235999
300.0319639298678
300.05613727371974
300.0982726789162
300.1712838759546
300.2971564781331
300.5133999454254
300.88439374709634
301.52178265159097
302.6223343015627
304.54121059274996
307.93056060972424
313.92057802510016
323.4333306592114
335.91116149649815
300.0084162302525
300.01487790789656
300.0263404364632
300.0465346828068
300.0818550853369
300.14319140292525
300.2490167962337
300.430633103519
300.74115624517117
301.2710219993892
302.1748028517421
303.716737263319
306.33855907859385
310.78980366060927
317.86003409310894
327.6938586920264
339.3974186244462
300.0067917485752
300.0120815133734
300.0215240168536
300.0382416618007
300.0675903256243
300.1186829472906
300.2069306870071
300.358289294082
300.61636980439647
301.05430745187795
301.79420867083803
303.03729403056826
305.1022349644224
308.51864145436986
313.9055158268586
321.606919669326
331.3270616554384
342.1698943245164
300.005458930432