# vtk DataFile Version 2.0
JuliaCFD
ASCII
DATASET UNSTRUCTURED_GRID

POINTS 1900 float
0.0 0.0 0.005
0.0 0.0416667 0.005
0.0 0.0833333 0.005
0.0 0.125 0.005
0.0 0.166667 0.005
0.0 0.208333 0.005
0.0 0.25 0.005
0.0 0.291667 0.005
0.0 0.333333 0.005
0.0 0.375 0.005
0.0 0.416667 0.005
0.0 0.458333 0.005
0.0 0.5 0.005
0.0 0.541667 0.005
0.0 0.583333 0.005
0.0 0.625 0.005
0.0 0.666667 0.005
0.0 0.708333 0.005
0.0 0.75 0.005
0.0 0.791667 0.005
0.0 0.833333 0.005
0.0 0.875 0.005
0.0 0.916667 0.005
0.0 0.958333 0.005
0.0 1.0 0.005
0.0409575 0.0 0.005
0.0409401 0.0416667 0.005
0.0409227 0.0833333 0.005
0.0409054 0.125 0.005
0.040888 0.166667 0.005
0.0408706 0.208333 0.005
0.0408532 0.25 0.005
0.0408359 0.291667 0.005
0.0408185 0.333333 0.005
0.0408011 0.375 0.005
0.0407838 0.416667 0.005
0.0407664 0.458333 0.005
0.040749 0.5 0.005
0.0407316 0.541667 0.005
0.0407143 0.583333 0.005
0.0406969 0.625 0.005
0.0406795 0.666667 0.005
0.0406621 0.708333 0.005
0.0406448 0.75 0.005
0.0406274 0.791667 0.005
0.04061 0.833333 0.005
0.0405927 0.875 0.005
0.0405753 0.916667 0.005
0.0405579 0.958333 0.005
0.0405405 1.0 0.005
0.0819149 0.0 0.005
0.0818802 0.0416667 0.005
0.0818455 0.0833333 0.005
0.0818107 0.125 0.005
0.081776 0.166667 0.005
0.0817412 0.208333 0.005
0.0817065 0.25 0.005
0.0816717 0.291667 0.005
0.081637 0.333333 0.005
0.0816022 0.375 0.005
0.0815675 0.416667 0.005
0.0815328 0.458333 0.005
0.081498 0.5 0.005
0.0814633 0.541667 0.005
0.0814285 0.583333 0.005
0.0813938 0.625 0.005
0.081359 0.666667 0.005
0.0813243 0.708333 0.005
0.0812895 0.75 0.005
0.0812548 0.791667 0.005
0.0812201 0.833333 0.005
0.0811853 0.875 0.005
0.0811506 0.916667 0.005
0.0811158 0.958333 0.005
0.0810811 1.0 0.005
0.122872 0.0 0.005
0.12282 0.0416667 0.005
0.122768 0.0833333 0.005
0.122716 0.125 0.005
0.122664 0.166667 0.005
0.122612 0.208333 0.005
0.12256 0.25 0.005
0.122508 0.291667 0.005
0.122455 0.333333 0.005
0.122403 0.375 0.005
0.122351 0.416667 0.005
0.122299 0.458333 0.005
0.122247 0.5 0.005
0.122195 0.541667 0.005
0.122143 0.583333 0.005
0.122091 0.625 0.005
0.122039 0.666667 0.005
0.121986 0.708333 0.005
0.121934 0.75 0.005
0.121882 0.791667 0.005
0.12183 0.833333 0.005
0.121778 0.875 0.005
0.121726 0.916667 0.005
0.121674 0.958333 0.005
0.121622 1.0 0.005
0.16383 0.0 0.005
0.16376 0.0416667 0.005
0.163691 0.0833333 0.005
0.163621 0.125 0.005
0.163552 0.166667 0.005
0.163482 0.208333 0.005
0.163413 0.25 0.005
0.163343 0.291667 0.005
0.163274 0.333333 0.005
0.163204 0.375 0.005
0.163135 0.416667 0.005
0.163066 0.458333 0.005
0.162996 0.5 0.005
0.162927 0.541667 0.005
0.162857 0.583333 0.005
0.162788 0.625 0.005
0.162718 0.666667 0.005
0.162649 0.708333 0.005
0.162579 0.75 0.005
0.16251 0.791667 0.005
0.16244 0.833333 0.005
0.162371 0.875 0.005
0.162301 0.916667 0.005
0.162232 0.958333 0.005
0.162162 1.0 0.005
0.204787 0.0 0.005
0.2047 0.0416667 0.005
0.204614 0.0833333 0.005
0.204527 0.125 0.005
0.20444 0.166667 0.005
0.204353 0.208333 0.005
0.204266 0.25 0.005
0.204179 0.291667 0.005
0.204092 0.333333 0.005
0.204006 0.375 0.005
0.203919 0.416667 0.005
0.203832 0.458333 0.005
0.203745 0.5 0.005
0.203658 0.541667 0.005
0.203571 0.583333 0.005
0.203484 0.625 0.005
0.203398 0.666667 0.005
0.203311 0.708333 0.005
0.203224 0.75 0.005
0.203137 0.791667 0.005
0.20305 0.833333 0.005
0.202963 0.875 0.005
0.202876 0.916667 0.005
0.20279 0.958333 0.005
0.202703 1.0 0.005
0.245745 0.0 0.005
0.245641 0.0416667 0.005
0.245536 0.0833333 0.005
0.245432 0.125 0.005
0.245328 0.166667 0.005
0.245224 0.208333 0.005
0.245119 0.25 0.005
0.245015 0.291667 0.005
0.244911 0.333333 0.005
0.244807 0.375 0.005
0.244703 0.416667 0.005
0.244598 0.458333 0.005
0.244494 0.5 0.005
0.24439 0.541667 0.005
0.244286 0.583333 0.005
0.244181 0.625 0.005
0.244077 0.666667 0.005
0.243973 0.708333 0.005
0.243869 0.75 0.005
0.243764 0.791667 0.005
0.24366 0.833333 0.005
0.243556 0.875 0.005
0.243452 0.916667 0.005
0.243347 0.958333 0.005
0.243243 1.0 0.005
0.286702 0.0 0.005
0.286581 0.0416667 0.005
0.286459 0.0833333 0.005
0.286337 0.125 0.005
0.286216 0.166667 0.005
0.286094 0.208333 0.005
0.285973 0.25 0.005
0.285851 0.291667 0.005
0.285729 0.333333 0.005
0.285608 0.375 0.005
0.285486 0.416667 0.005
0.285365 0.458333 0.005
0.285243 0.5 0.005
0.285121 0.541667 0.005
0.285 0.583333 0.005
0.284878 0.625 0.005
0.284757 0.666667 0.005
0.284635 0.708333 0.005
0.284513 0.75 0.005
0.284392 0.791667 0.005
0.28427 0.833333 0.005
0.284149 0.875 0.005
0.284027 0.916667 0.005
0.283905 0.958333 0.005
0.283784 1.0 0.005
0.32766 0.0 0.005
0.327521 0.0416667 0.005
0.327382 0.0833333 0.005
0.327243 0.125 0.005
0.327104 0.166667 0.005
0.326965 0.208333 0.005
0.326826 0.25 0.005
0.326687 0.291667 0.005
0.326548 0.333333 0.005
0.326409 0.375 0.005
0.32627 0.416667 0.005
0.326131 0.458333 0.005
0.325992 0.5 0.005
0.325853 0.541667 0.005
0.325714 0.583333 0.005
0.325575 0.625 0.005
0.325436 0.666667 0.005
0.325297 0.708333 0.005
0.325158 0.75 0.005
0.325019 0.791667 0.005
0.32488 0.833333 0.005
0.324741 0.875 0.005
0.324602 0.916667 0.005
0.324463 0.958333 0.005
0.324324 1.0 0.005
0.368617 0.0 0.005
0.368461 0.0416667 0.005
0.368305 0.0833333 0.005
0.368148 0.125 0.005
0.367992 0.166667 0.005
0.367835 0.208333 0.005
0.367679 0.25 0.005
0.367523 0.291667 0.005
0.367366 0.333333 0.005
0.36721 0.375 0.005
0.367054 0.416667 0.005
0.366897 0.458333 0.005
0.366741 0.5 0.005
0.366585 0.541667 0.005
0.366428 0.583333 0.005
0.366272 0.625 0.005
0.366116 0.666667 0.005
0.365959 0.708333 0.005
0.365803 0.75 0.005
0.365647 0.791667 0.005
0.36549 0.833333 0.005
0.365334 0.875 0.005
0.365178 0.916667 0.005
0.365021 0.958333 0.005
0.364865 1.0 0.005
0.409575 0.0 0.005
0.409401 0.0416667 0.005
0.409227 0.0833333 0.005
0.409054 0.125 0.005
0.40888 0.166667 0.005
0.408706 0.208333 0.005
0.408532 0.25 0.005
0.408359 0.291667 0.005
0.408185 0.333333 0.005
0.408011 0.375 0.005
0.407838 0.416667 0.005
0.407664 0.458333 0.005
0.40749 0.5 0.005
0.407316 0.541667 0.005
0.407143 0.583333 0.005
0.406969 0.625 0.005
0.406795 0.666667 0.005
0.406621 0.708333 0.005
0.406448 0.75 0.005
0.406274 0.791667 0.005
0.4061 0.833333 0.005
0.405927 0.875 0.005
0.405753 0.916667 0.005
0.405579 0.958333 0.005
0.405405 1.0 0.005
0.450532 0.0 0.005
0.450341 0.0416667 0.005
0.45015 0.0833333 0.005
0.449959 0.125 0.005
0.449768 0.166667 0.005
0.449577 0.208333 0.005
0.449386 0.25 0.005
0.449195 0.291667 0.005
0.449003 0.333333 0.005
0.448812 0.375 0.005
0.448621 0.416667 0.005
0.44843 0.458333 0.005
0.448239 0.5 0.005
0.448048 0.541667 0.005
0.447857 0.583333 0.005
0.447666 0.625 0.005
0.447475 0.666667 0.005
0.447284 0.708333 0.005
0.447093 0.75 0.005
0.446901 0.791667 0.005
0.44671 0.833333 0.005
0.446519 0.875 0.005
0.446328 0.916667 0.005
0.446137 0.958333 0.005
0.445946 1.0 0.005
0.49149 0.0 0.005
0.491281 0.0416667 0.005
0.491073 0.0833333 0.005
0.490864 0.125 0.005
0.490656 0.166667 0.005
0.490447 0.208333 0.005
0.490239 0.25 0.005
0.49003 0.291667 0.005
0.489822 0.333333 0.005
0.489613 0.375 0.005
0.489405 0.416667 0.005
0.489197 0.458333 0.005
0.488988 0.5 0.005
0.48878 0.541667 0.005
0.488571 0.583333 0.005
0.488363 0.625 0.005
0.488154 0.666667 0.005
0.487946 0.708333 0.005
0.487737 0.75 0.005
0.487529 0.791667 0.005
0.48732 0.833333 0.005
0.487112 0.875 0.005
0.486903 0.916667 0.005
0.486695 0.958333 0.005
0.486486 1.0 0.005
0.531954 0.00563435 0.005
0.531749 0.0470663 0.005
0.531544 0.0884982 0.005
0.531338 0.12993 0.005
0.531133 0.171362 0.005
0.530928 0.212794 0.005
0.530722 0.254226 0.005
0.530517 0.295658 0.005
0.530312 0.33709 0.005
0.530107 0.378521 0.005
0.529901 0.419953 0.005
0.529696 0.461385 0.005
0.529491 0.502817 0.005
0.529285 0.544249 0.005
0.52908 0.585681 0.005
0.528875 0.627113 0.005
0.528669 0.668545 0.005
0.528464 0.709977 0.005
0.528259 0.751409 0.005
0.528054 0.79284 0.005
0.527848 0.834272 0.005
0.527643 0.875704 0.005
0.527438 0.917136 0.005
0.527232 0.958568 0.005
0.527027 1.0 0.005
0.572289 0.0127465 0.005
0.572093 0.0538821 0.005
0.571896 0.0950177 0.005
0.571699 0.136153 0.005
0.571502 0.177289 0.005
0.571306 0.218424 0.005
0.571109 0.25956 0.005
0.570912 0.300695 0.005
0.570715 0.341831 0.005
0.570519 0.382967 0.005
0.570322 0.424102 0.005
0.570125 0.465238 0.005
0.569928 0.506373 0.005
0.569732 0.547509 0.005
0.569535 0.588644 0.005
0.569338 0.62978 0.005
0.569142 0.670916 0.005
0.568945 0.712051 0.005
0.568748 0.753187 0.005
0.568551 0.794322 0.005
0.568355 0.835458 0.005
0.568158 0.876593 0.005
0.567961 0.917729 0.005
0.567764 0.958864 0.005
0.567568 1.0 0.005
0.612625 0.0198587 0.005
0.612436 0.0606979 0.005
0.612248 0.101537 0.005
0.61206 0.142376 0.005
0.611872 0.183216 0.005
0.611684 0.224055 0.005
0.611496 0.264894 0.005
0.611307 0.305733 0.005
0.611119 0.346572 0.005
0.610931 0.387412 0.005
0.610743 0.428251 0.005
0.610555 0.46909 0.005
0.610366 0.509929 0.005
0.610178 0.550769 0.005
0.60999 0.591608 0.005
0.609802 0.632447 0.005
0.609614 0.673286 0.005
0.609425 0.714125 0.005
0.609237 0.754965 0.005
0.609049 0.795804 0.005
0.608861 0.836643 0.005
0.608673 0.877482 0.005
0.608484 0.918322 0.005
0.608296 0.959161 0.005
0.608108 1.0 0.005
0.65296 0.0269708 0.005
0.65278 0.0675137 0.005
0.652601 0.108057 0.005
0.652421 0.148599 0.005
0.652241 0.189142 0.005
0.652062 0.229685 0.005
0.651882 0.270228 0.005
0.651702 0.310771 0.005
0.651523 0.351314 0.005
0.651343 0.391857 0.005
0.651164 0.4324 0.005
0.650984 0.472943 0.005
0.650804 0.513485 0.005
0.650625 0.554028 0.005
0.650445 0.594571 0.005
0.650265 0.635114 0.005
0.650086 0.675657 0.005
0.649906 0.7162 0.005
0.649726 0.756743 0.005
0.649547 0.797286 0.005
0.649367 0.837828 0.005
0.649188 0.878371 0.005
0.649008 0.918914 0.005
0.648828 0.959457 0.005
0.648649 1.0 0.005
0.693295 0.034083 0.005
0.693124 0.0743295 0.005
0.692953 0.114576 0.005
0.692782 0.154823 0.005
0.692611 0.195069 0.005
0.69244 0.235316 0.005
0.692269 0.275562 0.005
0.692098 0.315809 0.005
0.691926 0.356055 0.005
0.691755 0.396302 0.005
0.691584 0.436548 0.005
[...]
CELL_DATA 888
SCALARS P float 1
LOOKUP_TABLE default
100147.23336562981
100146.88441860037
100207.35935102448
100144.47982639653
100207.2316225732
100294.73582439366
100140.35084788279
100203.89344733866
100295.00920898917
100422.10769747605
100134.8099132749
100197.94230426816
100290.1661638871
100423.06443148878
100608.48843211227
100128.17115181094
100189.90732562052
100281.24805688941
100415.73007353715
100610.5834920081
100882.61222218764
100120.74441706362
100180.29177156792
100269.17328715553
100401.9240441071
100599.00392791735
100886.52356319019
101288.81170706771
100112.82214443457
100169.57237656681
100254.78951691787
100383.2702604898
100577.00923312605
100867.43672425959
101295.27135732753
101897.8658451515
100104.66723176742
100158.18553093894
100238.86950781583
100361.23499432005
100547.53543177237
100831.42468293254
101262.22655149046
101906.4570438531
102829.60839616049
100096.50520671245
100146.51411568442
100222.09363962976
100337.1046095973
100513.16393305658
100783.93430276375
101201.57585962203
101845.7530461247
102833.16517801587
104307.46218543264
100088.52104739477
100134.87971400427
100205.03644225062
100311.96134857717
100476.057931394
100729.55685762697
101123.66364440646
101740.4158723259
102713.36689115016
104268.25150455751
106813.36454864449
100080.8597714661
100123.54096194937
100188.1633704428
100286.67834527449
100437.9457348581
100671.92550101408
101036.66553921216
101610.39476329208
102524.13791818878
104011.68123642277
106559.539781953
111605.8094913489
100073.62979041795
100112.69682975668
100171.83536072758
100261.92813589153
100400.14225627783
100613.76091943849
100946.58412791514
101470.02907001853
102303.74894824626
103659.61969632152
105962.8370582842
110345.04355946383
122773.82768472146
100066.90772163267
100102.49299599527
100156.31956905485
100238.20681239296
100363.6040020127
100556.99684541125
100857.56079345327
101328.82767292982
102076.1352706036
103281.48130835783
105287.65778591229
108869.92169285857
116517.82702566011
133132.3766090937
100060.74389188045
100093.029877894
100141.80319389931
100215.86098249673
100328.98813109961
100502.93317934325
100772.29228967565
101192.69893594205
101855.10766894859
102912.46142930178
104636.25487904127
107562.88704530543
112954.57255615239
123415.33994578799
141262.03645787592
100055.16794737689
100084.37103182457
100128.40795379467
100195.11619478907
100296.71711111873
100452.38612601858
100692.41351797477
101065.04767364469
101648.02758423312
102568.84780420519
104043.19175206826
106456.92576888464
110556.12370636514
117808.40808857714
130019.72459148959
147867.77706030215
100050.19409017272
100076.55156930929
100116.20410594696
100176.10416811371
100267.03495106989
100405.81293020694
100618.80728322806
100947.61573828857
101458.34171998451
102257.08665130027
103516.76999053493
105525.95924036467
108777.92079383925
114179.53584879456
122952.63645419129
136042.71499189493
153326.01198463741
100045.82586872231
100069.58556880396
100105.22337691399
100158.8855674584
100240.0525024849
100363.41667795449
100551.84669920756
100841.08080447037
101287.201720521
101978.61206223485
103055.32700559791
104740.08521570746
107385.42082488781
111603.34758042495
118227.69960162463
128060.96811922519
141435.14099900133
157866.72017523178
100042.06053622079
100063.47288080485
100095.47005476925
100143.47092754365
100215.78823384813
100325.22453453606
100491.56415856261
100745.4523424276
101134.44604300702
101732.36951776016
102653.6337903291
104074.31227178503
106260.03753126987
109653.90261887656
114852.23283451662
122482.09203580623
132957.77158237618
146220.18340544947
161648.67365265416
100038.8929178743
100058.20517419385
100086.93049385144
100129.83642940801
100194.19714830964
100291.14884475915
100437.78047150088
100660.34938933846
100999.19553810057
101516.1499963628
102305.42975233254
103508.70343657896
105333.38987857032
108116.79973203098
112307.28926156789
118397.03954423497
126776.29155307946
137552.7182689217
150440.8307958149
164791.51873919793
100036.31927253057
100053.77138566939
100079.58187987558
100117.93842472181
100175.19681894082
100261.03141957203
100390.19160834744
100585.17204501336
100880.22227158009
101327.2840716113
102004.45216205133
103027.23612021471
104561.54504001809
106873.12641966956
110312.87596516512
115277.23039395697
122115.0434372091
130993.40287394052
141804.02909783993
154144.57183150304
167390.28077894004
100034.34168032574
100050.16325400701
100073.39959175511
100107.72407181271
100158.68401992795
100234.677369437
100348.43003624625
100519.2170223299
100776.15877001839
101163.01197684174
101744.87533101217
102616.8778699744
103913.99981516512
105850.33996931795
108708.48406790226
112815.77980335029
118482.88684619269
125901.27940770604
135054.69934281998
145696.83385192597
157378.24674827533
169523.70440800744
100032.97393697534
100047.38204107415
100068.36520041936
100099.14273813716
100144.5523207146
100211.88009553577
100312.10635293723
100461.757193349
100685.62647442485
101020.68193762169
101521.45091549246
102266.89203575719
103368.16108622371
105000.3676882962
107395.46590230019
110828.40575731044
115576.9841143167
121843.40456257567
129671.62829851834
138909.49802456185
149231.78909959111
160186.68832538338
171259.03204949168
100032.25154723083
100045.44825154744
100064.47654302372
100092.15648127643
100132.70458799806
100192.44083937601
100280.84021079053
100412.0835257021
100607.31472209589
100897.84857961466
101329.54760205132
101968.36397704351
102906.65718739439
104289.18930150398
106308.5975334266
109198.3718977396
113207.07540619747
118539.73149759164
125284.37050721401
133361.13663562585
142526.65049626635
152419.51290879797
162612.47211977153
172654.8674821412
100044.4185921118
100061.76263193024
100086.7548078732
100123.06893156032
100176.18582741669
100254.28379522364
100369.54187871928
100540.01960289245
100792.30852869913
101165.1258859415
101713.8557182734
102515.77379993774
103691.42094899384
105402.11868146188
107847.25947388518
111248.63255316071
115808.05858035779
121645.2361431589
128741.26106286893
136921.34456945138
145888.48473210327
155275.58550159776
164695.37621903082
173759.7984359685
100060.30980433818
100082.97628939302
100115.61772764944
100162.98617091274
100232.1425593235
100333.55446522366
100482.67007365446
100702.12391751292
101024.70937019915
101497.1374359336
102184.43486667192
103187.53141774015
104642.26386286879
106719.38830452293
109615.94545381247
113525.5328390532
118588.57744851983
124836.75242688153
132159.7730821408
140317.03386760026
148987.50052850365
157819.330570693
166471.91111590818
174618.80098916637
100080.94661334553
100110.39910986312
100152.78401369118
100214.19688369338
100303.64051466844
100434.34733030733
100625.62363903232
100905.32731161332
101313.00710868296
101903.63106724716
102762.08943109315
104003.18989426261
105773.3888454916
108246.87945376943
111605.480971538
116000.56146038888
121503.13292020753
128062.29033750566
135495.9731296203
143523.9796553504
151823.38856815794
160071.4153622319
167976.84298343645
175266.0121416287
100107.58967648006
100145.63485303689
100200.33858169895
100279.44497853484
100394.30025328831
100561.40191897322
100804.47670476214
101157.11974527965
101665.98187326654
102402.71722832602
103464.64678200806
104977.49457254643
107094.51066983922
109983.5125669921
113798.93742689665
118639.75971488957
124506.18729021822
131275.57028976857
138714.91039644068
146526.6244089445
154401.21313294247
162053.7641312178
169238.68704768948
175735.4558604163
100141.78052745723
100190.62603691882
100260.77995955772
100361.97458315219
100508.32663014893
100720.08839771632
101025.88059763695
101465.42974842325
102099.39170383355
103010.4810908025
104306.6756502152
106122.21878538316
108609.97521380881
111921.39543913395
116173.1048124981
121406.25112218403
127554.16383416486
134436.87957440302
141789.9609084846
149316.1983063088
156729.71889895594
163787.25821487186
170287.1988321147
176052.08685150594
100185.38451707536
100247.70013926762
100337.06563167907
100465.56690566304
100650.51813484314
100916.35873357732
101297.01434161143
101843.97986320348
102627.68187722408
103740.88611225122
105300.84556331884
107445.24370184008
110318.52291590344
114046.33962917334
118700.08439521743
124262.011975222
130606.85469336691
137512.80597532
144701.43839825445
151888.39057864298
158819.62904068964
165292.00575300682
171144.9955591261
176242.787754081
100240.63588435466
100319.61339156941
100432.65156955393
100594.56154166372
100826.24886088786
101156.74547421871
101629.87304780041
102305.70155621177
103263.95197590873
104606.78448853068
106457.17130978155
108950.0298431407
112213.3218987193
116338.89253260687
121348.83145618004
127169.58800147126
133628.0225616947
140475.97231016395
147435.50337488443
154244.03459867684
160683.03057113077
166587.76612637736
171835.6017752534
176322.48800427033
100310.18095951146
100409.59284863656
100551.52330413746
100753.86290165913
101041.49752125055
101451.77362169317
102036.00962339976
102862.74417786664
104020.81443404591
105619.32240126947
107782.31246671283
110635.30951056791
114282.19986512967
118775.30428370691
124086.59376467862
130093.03972643887
136585.84438412398
143304.90007282468
149983.1974612528
156386.034846549
162332.18190840082
167692.85989167698
172377.43276412063
176314.56150920008
100397.1218995893
100521.37468670096
100698.2217422921
100948.9925796054
101305.55852536367
101811.7939532342
102526.63172539842
103527.19930841423
104909.82142072494
106787.18066293566
109279.10024731483
112494.97605550829
116508.33360807526
121328.65765486393
126880.19519852167
132999.06288174837
139453.06211093607
145981.77038655427
152338.72040745785
158320.2910801795
163780.28513874355
168623.7651146685
172788.76137425753
176230.20178421636
100505.05743126333
100659.24089510567
100877.90592375399
101188.24591843184
101627.75693051088
102247.10676651797
103113.1579359333
104310.61600195928
105940.88076966949
108116.10394405783
110946.23865768951
114518.33890712593
118870.88990149598
123969.95356660793
129697.03675512366
135856.76102559894
142206.60370523934
148494.76382180804
154500.1003041011
160052.60855371488
165039.25216317724
169395.01315091562
173084.83463489366
176088.4202875413
100638.12779242203
100828.0931870796
101098.0883006
101480.07741812654
102017.55478991313
102768.40015370846
103806.82440226733
105223.43834508928
107121.65703336168
109608.43828266607
112778.15356391038
116690.34750911739
121345.86169543948
126669.06509913263
132505.8143373453
138639.5747548543
144826.539924711
150833.13897619088
156466.466387529
161589.21882751377
166120.3496165571
170021.1380808244
173281.5479613928
175908.0460700955
100801.09212787144
101034.87465337751
101366.52088222206
101833.21387516543
102484.92348703225
103386.45210573418
104618.26389036232
106274.57811861522
108457.11118124245
111262.71671625064
114765.04818383168
118992.21200693412
123906.74941389878
129395.60950389152
135276.41214579766
141322.64382672036
147297.49098659103
152990.0185242517
158238.43645788266
162936.97149046656
167033.29464546978
170514.36879608358
173394.5960090132
175724.26113712043
101000.580839201
101286.83172499991
101691.32225075558
102256.96033351345
103040.08845049585
104111.75562953822
105557.00555408811
107470.81485516083
109949.0353918236
113073.63796284334
116893.00408694467
121401.79040941501
126525.56767495452
132119.1731764076
137981.51754998605
143883.8857509322
149604.71004458534
154959.61135656477
159816.7402874648
164101.09630020373
167786.96748562605
170886.04552337297
173445.06410440113
175581.20264682802
101243.54349027475
101591.62457084563
102081.2275051812
102761.00014952644
103693.2644242834
104954.1169238966
106631.01053702773
108816.31567628645
111595.71944004452
115031.76119256462
119144.39487690917
123893.86283091678
129172.72068589569
134810.36891929514
140594.98444233293
146304.19045973275
151736.72066614695
156736.43717253665
161201.29174289285
165084.92384001397
168386.7316715173
171144.6554717889
173454.1851250699
101537.38415903409
101957.53683428298
102545.4109184644
103355.14848260792
104454.24327627392
105922.2042346783
107846.19931210678
110312.23050346652
113391.65084743442
117123.72586809316
121498.04340553436
126441.9183438962
131818.6342271505
137440.31609358758
143092.46078445684
148565.3569106885
153681.65279543577
158313.74442717634
162389.3106279607
165887.50299393415
168830.57295593768
171289.27665196874
101890.12291822862
102393.34700770878
103093.2904690771
104049.04793530812
105332.01397877767
107023.0363132302
109205.8443558577
111956.30162744498
115327.42618650936
119332.36228522238
123929.75928032146
129016.53549095015
134432.83162457627
139980.94152852873
145450.2915192032
150649.42597636025
155426.9182481886
159683.61889667186
163372.818918715
166496.3391059419
169095.59680416863
102310.28604630158
102908.12431261307
103734.25604259419
104851.76865436549
106334.32659914752
108261.49228829115
110710.23625596061
113742.43856614595
117389.2806259125
121636.3175108784
126411.9639323282
131586.7890845651
136984.48372423265
142403.67071522883
147644.59882965192
152537.46784797416
156956.77838789753
160829.38038970187
164129.73143965527
166868.40455125415
102806.73993972682
103511.00141057282
104477.32073531757
105771.41615146845
107467.14458505131
109639.84758053819
112356.19876838062
115660.62999047019
119559.9168198476
124011.07988213848
128915.1073474374
134120.8242727505
139441.7992322748
144679.40002667854
149650.11221698287
154206.16989186735
158247.4117099903
161718.53051197034
164597.1596208125
103388.43505763092
104210.87340884176
105330.73680068718
106814.67686434007
108734.14602059635
111157.1777396814
114136.64290686746
117696.23312420778
121817.26233346814
126428.59452385898
131406.42362199392
136584.2804882076
141771.15153562304
146777.10172129408
151436.76820043358
155623.94589391717
159254.87248692175
162271.14544524392
104064.15173749076
105016.00967168016
106301.57917300012
107986.21774591468
110136.22463331702
112808.94261973901
116040.07817211347
119830.52061145414
124134.85062294456
128855.96193680221
133850.2734096964
138939.90409286608
143935.63964554982
148659.75282342706
152964.51061815795
156736.658025987
159883.2547866153
104842.14069001042
105933.6402600319
107395.15242904537
109288.17214703377
111670.67679044364
114586.1814018732
118050.41640221434
122039.55616356524
126481.97312362099
131257.8151900234
136206.68844328116
141146.04373484245
145891.90213735087
150278.91608598595
154167.97195224502
157431.26783154646
105729.67646834218
106969.47288209398
108614.50907895314
110719.58659071696
113331.18663548348
116475.5441756344
120146.29821011245
124294.13028112463
128822.64820076535
133591.77906966055
138429.88120391304
143153.29986484704
147583.82070453174
151559.416410159
154920.2489265147
106732.60544479195
108127.08435822927
109959.82636103108
112275.64754366904
115106.31396736004
118458.01621240251
122300.65821640665
126559.12060039838
131114.5264939064
135810.12387871798
140466.57970096948
144898.51208629247
148926.57587060728
152360.3960405985
107854.79364907497
109407.34436048506
111427.45313592217
113946.81543616799
116979.26702576436
120508.6079133295
124479.48845172592
128792.35909810716
133307.77973384553
137854.6535734684
142246.290395157
146288.9569275516
149767.04659128695
109097.41844055486
110807.62740256783
113009.69896252961
115718.67792395936
118927.2795906429
122595.24304687751
126641.39915583683
130942.96678988678
135340.82219109248
139650.47755793683
143668.61086917509
147159.56782634222
110458.40399569689
112321.08121997106
114693.2657680228
117569.8359657362
120920.05867369089
124677.61794894264
128735.50131550367
132947.7439637223
137134.99397285635
141089.95799928185
144560.2131079562
111931.4282930057
113935.75222565219
116458.78479812895
119472.07383316253
122918.77116560112
126705.11669178998
130697.50985088963
134724.82344695408
138578.08152481457
141993.34586322698
113505.17754473374
115633.4239588715
118279.3876978632
121387.965398525
124873.71825133055
128613.28276694691
132443.62559222852
136157.7578238037
139483.82269592874
115162.1154981052
117388.43385043435
120119.18087409348
123268.94703232039
126720.62188337265
130317.57403510486
133855.32075615381
137057.97839788563
116877.24281277446
119166.04747158305
121930.73272483518
125052.04016738322
128375.2055973814
131698.47224534545
134742.69188090845
118616.636289455
120920.22599050697
123652.57676787298
126653.44210132159
129718.69722652016
132566.82631532548
120335.04745242868
122590.23639409203
125201.74380593964
127955.19732661254
130563.45454977026
121972.52545054922
124094.81517222224
126462.46534743666
128773.97088075765
123448.73538979977
125320.00935535459
127254.84518450731
124650.93378540981
126089.52702972658
125405.80212053684
SCALARS T float 1
LOOKUP_TABLE default
300.12708439386626
300.12676342142265
300.1794658176061
300.1246618583687
300.1793109390033
300.2560181245334
300.1210664871592
300.17636656110653
300.25615587549646
300.3684306974714
300.11624925823423
300.1711510205701
300.25182970855894
300.36904222265446
300.53446848868737
300.110484081141
300.1641267763717
300.2439467052112
300.3623821501371
300.5358086706395
300.78154933984337
300.104041012634
300.15573498464556
300.23331423479186
300.3500449167705
300.52507930454277
300.7838947670249
301.1528975777044
300.0971745154469
300.14639343286257
300.2206802575968
300.3334690957403
300.50516059155643
300.76579186234505
301.1561770460219
301.71874808364254
300.09011282768637
300.1364837334292
300.20672636079024
300.31395871775476
300.4786779232751
300.73266348857686
301.1240534773189
301.7209740790319
302.5986039456572
300.0830512050388
300.1263396252456
300.1920508711674
300.29265666233454
300.4479477949788
300.6894324221999
301.0672811300795
301.66063280837324
302.5897824771483
304.01067215963076
300.07614928494814
300.11624030253085
300.1771567216357
300.27052039698515
300.41490725813435
300.6402585647526
300.9953127152866
301.5602859044597
302.4690065195985
303.9495247814914
306.39805710538116
300.0695317520807
300.1064092628035
300.162449019826
300.24831740471865
300.38109453882333
300.5884209126206
300.9156252051903
301.4383427128436
302.28604552906944
303.6911672690061
306.11965197688994
310.7993748397603
300.0632913971699
300.0970175002029
300.14823973365594
300.22663390143714
300.3476691639512
300.53635342585676
300.8336735059367
301.30801832486276
302.076438833186
303.3481399421575
305.53266082009816
309.62583940477595
320.0489229472873
300.05749341329823
300.08818936541
300.1347578281827
300.2058977840357
300.3154642250836
300.4857629174788
300.7531729879946
301.17799128919336
301.8623403551611
302.98494169255224
304.8781691698839
308.24548305615053
315.0481028477826
328.10097162905066
300.05218025818647
300.08000980081545
300.122161997122
300.1864039594846
300.28504260431174
300.43777489651455
300.6764938457617
301.0535500674575
301.6563486824171
302.6341712654131
304.25126981563
307.0069823452689
311.9507500602638
320.8402181141147
334.1675690229322
300.04737657515346
300.0725318238781
300.11055379727077
300.1683406140602
300.256757539399
300.3930760188424
300.605026875331
300.9376385484642
301.4649626422567
302.3105700188088
303.6844574272038
305.95243749326056
309.764530391776
316.2196371705239
326.16233495650175
338.96181616877624
300.0430937611001
300.06578395307713
300.0999902137379
300.1518140234756
300.2308047789834
300.3520317501598
300.5394788751489
300.831662324258
301.2910030948292
302.0195346238536
303.18515382736433
305.064423473363
308.1031371485222
313.0361926197589
320.5961025905863
330.8466061784524
342.8394726037774
300.0393341258238
300.0597767037183
300.09049512986826
300.13686908667125
300.20726415001707
300.31478390798173
300.48010181218785
300.73606148065653
301.1351710865021
301.7617369420106
302.75102007262075
304.3175067066294
306.7880630276045
310.6892980436119
316.6026638438963
324.80002517760965
334.91423875343907
346.0093259621895
300.03609466004065
300.054508512767
300.0820690791056
300.1235079402254
300.1861363415754