# vtk DataFile Version 2.0
JuliaCFD
ASCII
DATASET UNSTRUCTURED_GRID

POINTS 1900 float
0.0 0.0 0.005
0.0 0.0416667 0.005
0.0 0.0833333 0.005
0.0 0.125 0.005
0.0 0.166667 0.005
0.0 0.208333 0.005
0.0 0.25 0.005
0.0 0.291667 0.005
0.0 0.333333 0.005
0.0 0.375 0.005
0.0 0.416667 0.005
0.0 0.458333 0.005
0.0 0.5 0.005
0.0 0.541667 0.005
0.0 0.583333 0.005
0.0 0.625 0.005
0.0 0.666667 0.005
0.0 0.708333 0.005
0.0 0.75 0.005
0.0 0.791667 0.005
0.0 0.833333 0.005
0.0 0.875 0.005
0.0 0.916667 0.005
0.0 0.958333 0.005
0.0 1.0 0.005
0.0409575 0.0 0.005
0.0409401 0.0416667 0.005
0.0409227 0.0833333 0.005
0.0409054 0.125 0.005
0.040888 0.166667 0.005
0.0408706 0.208333 0.005
0.0408532 0.25 0.005
0.0408359 0.291667 0.005
0.0408185 0.333333 0.005
0.0408011 0.375 0.005
0.0407838 0.416667 0.005
0.0407664 0.458333 0.005
0.040749 0.5 0.005
0.0407316 0.541667 0.005
0.0407143 0.583333 0.005
0.0406969 0.625 0.005
0.0406795 0.666667 0.005
0.0406621 0.708333 0.005
0.0406448 0.75 0.005
0.0406274 0.791667 0.005
0.04061 0.833333 0.005
0.0405927 0.875 0.005
0.0405753 0.916667 0.005
0.0405579 0.958333 0.005
0.0405405 1.0 0.005
0.0819149 0.0 0.005
0.0818802 0.0416667 0.005
0.0818455 0.0833333 0.005
0.0818107 0.125 0.005
0.081776 0.166667 0.005
0.0817412 0.208333 0.005
0.0817065 0.25 0.005
0.0816717 0.291667 0.005
0.081637 0.333333 0.005
0.0816022 0.375 0.005
0.0815675 0.416667 0.005
0.0815328 0.458333 0.005
0.081498 0.5 0.005
0.0814633 0.541667 0.005
0.0814285 0.583333 0.005
0.0813938 0.625 0.005
0.081359 0.666667 0.005
0.0813243 0.708333 0.005
0.0812895 0.75 0.005
0.0812548 0.791667 0.005
0.0812201 0.833333 0.005
0.0811853 0.875 0.005
0.0811506 0.916667 0.005
0.0811158 0.958333 0.005
0.0810811 1.0 0.005
0.122872 0.0 0.005
0.12282 0.0416667 0.005
0.122768 0.0833333 0.005
0.122716 0.125 0.005
0.122664 0.166667 0.005
0.122612 0.208333 0.005
0.12256 0.25 0.005
0.122508 0.291667 0.005
0.122455 0.333333 0.005
0.122403 0.375 0.005
0.122351 0.416667 0.005
0.122299 0.458333 0.005
0.122247 0.5 0.005
0.122195 0.541667 0.005
0.122143 0.583333 0.005
0.122091 0.625 0.005
0.122039 0.666667 0.005
0.121986 0.708333 0.005
0.121934 0.75 0.005
0.121882 0.791667 0.005
0.12183 0.833333 0.005
0.121778 0.875 0.005
0.121726 0.916667 0.005
0.121674 0.958333 0.005
0.121622 1.0 0.005
0.16383 0.0 0.005
0.16376 0.0416667 0.005
0.163691 0.0833333 0.005
0.163621 0.125 0.005
0.163552 0.166667 0.005
0.163482 0.208333 0.005
0.163413 0.25 0.005
0.163343 0.291667 0.005
0.163274 0.333333 0.005
0.163204 0.375 0.005
0.163135 0.416667 0.005
0.163066 0.458333 0.005
0.162996 0.5 0.005
0.162927 0.541667 0.005
0.162857 0.583333 0.005
0.162788 0.625 0.005
0.162718 0.666667 0.005
0.162649 0.708333 0.005
0.162579 0.75 0.005
0.16251 0.791667 0.005
0.16244 0.833333 0.005
0.162371 0.875 0.005
0.162301 0.916667 0.005
0.162232 0.958333 0.005
0.162162 1.0 0.005
0.204787 0.0 0.005
0.2047 0.0416667 0.005
0.204614 0.0833333 0.005
0.204527 0.125 0.005
0.20444 0.166667 0.005
0.204353 0.208333 0.005
0.204266 0.25 0.005
0.204179 0.291667 0.005
0.204092 0.333333 0.005
0.204006 0.375 0.005
0.203919 0.416667 0.005
0.203832 0.458333 0.005
0.203745 0.5 0.005
0.203658 0.541667 0.005
0.203571 0.583333 0.005
0.203484 0.625 0.005
0.203398 0.666667 0.005
0.203311 0.708333 0.005
0.203224 0.75 0.005
0.203137 0.791667 0.005
0.20305 0.833333 0.005
0.202963 0.875 0.005
0.202876 0.916667 0.005
0.20279 0.958333 0.005
0.202703 1.0 0.005
0.245745 0.0 0.005
0.245641 0.0416667 0.005
0.245536 0.0833333 0.005
0.245432 0.125 0.005
0.245328 0.166667 0.005
0.245224 0.208333 0.005
0.245119 0.25 0.005
0.245015 0.291667 0.005
0.244911 0.333333 0.005
0.244807 0.375 0.005
0.244703 0.416667 0.005
0.244598 0.458333 0.005
0.244494 0.5 0.005
0.24439 0.541667 0.005
0.244286 0.583333 0.005
0.244181 0.625 0.005
0.244077 0.666667 0.005
0.243973 0.708333 0.005
0.243869 0.75 0.005
0.243764 0.791667 0.005
0.24366 0.833333 0.005
0.243556 0.875 0.005
0.243452 0.916667 0.005
0.243347 0.958333 0.005
0.243243 1.0 0.005
0.286702 0.0 0.005
0.286581 0.0416667 0.005
0.286459 0.0833333 0.005
0.286337 0.125 0.005
0.286216 0.166667 0.005
0.286094 0.208333 0.005
0.285973 0.25 0.005
0.285851 0.291667 0.005
0.285729 0.333333 0.005
0.285608 0.375 0.005
0.285486 0.416667 0.005
0.285365 0.458333 0.005
0.285243 0.5 0.005
0.285121 0.541667 0.005
0.285 0.583333 0.005
0.284878 0.625 0.005
0.284757 0.666667 0.005
0.284635 0.708333 0.005
0.284513 0.75 0.005
0.284392 0.791667 0.005
0.28427 0.833333 0.005
0.284149 0.875 0.005
0.284027 0.916667 0.005
0.283905 0.958333 0.005
0.283784 1.0 0.005
0.32766 0.0 0.005
0.327521 0.0416667 0.005
0.327382 0.0833333 0.005
0.327243 0.125 0.005
0.327104 0.166667 0.005
0.326965 0.208333 0.005
0.326826 0.25 0.005
0.326687 0.291667 0.005
0.326548 0.333333 0.005
0.326409 0.375 0.005
0.32627 0.416667 0.005
0.326131 0.458333 0.005
0.325992 0.5 0.005
0.325853 0.541667 0.005
0.325714 0.583333 0.005
0.325575 0.625 0.005
0.325436 0.666667 0.005
0.325297 0.708333 0.005
0.325158 0.75 0.005
0.325019 0.791667 0.005
0.32488 0.833333 0.005
0.324741 0.875 0.005
0.324602 0.916667 0.005
0.324463 0.958333 0.005
0.324324 1.0 0.005
0.368617 0.0 0.005
0.368461 0.0416667 0.005
0.368305 0.0833333 0.005
0.368148 0.125 0.005
0.367992 0.166667 0.005
0.367835 0.208333 0.005
0.367679 0.25 0.005
0.367523 0.291667 0.005
0.367366 0.333333 0.005
0.36721 0.375 0.005
0.367054 0.416667 0.005
0.366897 0.458333 0.005
0.366741 0.5 0.005
0.366585 0.541667 0.005
0.366428 0.583333 0.005
0.366272 0.625 0.005
0.366116 0.666667 0.005
0.365959 0.708333 0.005
0.365803 0.75 0.005
0.365647 0.791667 0.005
0.36549 0.833333 0.005
0.365334 0.875 0.005
0.365178 0.916667 0.005
0.365021 0.958333 0.005
0.364865 1.0 0.005
0.409575 0.0 0.005
0.409401 0.0416667 0.005
0.409227 0.0833333 0.005
0.409054 0.125 0.005
0.40888 0.166667 0.005
0.408706 0.208333 0.005
0.408532 0.25 0.005
0.408359 0.291667 0.005
0.408185 0.333333 0.005
0.408011 0.375 0.005
0.407838 0.416667 0.005
0.407664 0.458333 0.005
0.40749 0.5 0.005
0.407316 0.541667 0.005
0.407143 0.583333 0.005
0.406969 0.625 0.005
0.406795 0.666667 0.005
0.406621 0.708333 0.005
0.406448 0.75 0.005
0.406274 0.791667 0.005
0.4061 0.833333 0.005
0.405927 0.875 0.005
0.405753 0.916667 0.005
0.405579 0.958333 0.005
0.405405 1.0 0.005
0.450532 0.0 0.005
0.450341 0.0416667 0.005
0.45015 0.0833333 0.005
0.449959 0.125 0.005
0.449768 0.166667 0.005
0.449577 0.208333 0.005
0.449386 0.25 0.005
0.449195 0.291667 0.005
0.449003 0.333333 0.005
0.448812 0.375 0.005
0.448621 0.416667 0.005
0.44843 0.458333 0.005
0.448239 0.5 0.005
0.448048 0.541667 0.005
0.447857 0.583333 0.005
0.447666 0.625 0.005
0.447475 0.666667 0.005
0.447284 0.708333 0.005
0.447093 0.75 0.005
0.446901 0.791667 0.005
0.44671 0.833333 0.005
0.446519 0.875 0.005
0.446328 0.916667 0.005
0.446137 0.958333 0.005
0.445946 1.0 0.005
0.49149 0.0 0.005
0.491281 0.0416667 0.005
0.491073 0.0833333 0.005
0.490864 0.125 0.005
0.490656 0.166667 0.005
0.490447 0.208333 0.005
0.490239 0.25 0.005
0.49003 0.291667 0.005
0.489822 0.333333 0.005
0.489613 0.375 0.005
0.489405 0.416667 0.005
0.489197 0.458333 0.005
0.488988 0.5 0.005
0.48878 0.541667 0.005
0.488571 0.583333 0.005
0.488363 0.625 0.005
0.488154 0.666667 0.005
0.487946 0.708333 0.005
0.487737 0.75 0.005
0.487529 0.791667 0.005
0.48732 0.833333 0.005
0.487112 0.875 0.005
0.486903 0.916667 0.005
0.486695 0.958333 0.005
0.486486 1.0 0.005
0.531954 0.00563435 0.005
0.531749 0.0470663 0.005
0.531544 0.0884982 0.005
0.531338 0.12993 0.005
0.531133 0.171362 0.005
0.530928 0.212794 0.005
0.530722 0.254226 0.005
0.530517 0.295658 0.005
0.530312 0.33709 0.005
0.530107 0.378521 0.005
0.529901 0.419953 0.005
0.529696 0.461385 0.005
0.529491 0.502817 0.005
0.529285 0.544249 0.005
0.52908 0.585681 0.005
0.528875 0.627113 0.005
0.528669 0.668545 0.005
0.528464 0.709977 0.005
0.528259 0.751409 0.005
0.528054 0.79284 0.005
0.527848 0.834272 0.005
0.527643 0.875704 0.005
0.527438 0.917136 0.005
0.527232 0.958568 0.005
0.527027 1.0 0.005
0.572289 0.0127465 0.005
0.572093 0.0538821 0.005
0.571896 0.0950177 0.005
0.571699 0.136153 0.005
0.571502 0.177289 0.005
0.571306 0.218424 0.005
0.571109 0.25956 0.005
0.570912 0.300695 0.005
0.570715 0.341831 0.005
0.570519 0.382967 0.005
0.570322 0.424102 0.005
0.570125 0.465238 0.005
0.569928 0.506373 0.005
0.569732 0.547509 0.005
0.569535 0.588644 0.005
0.569338 0.62978 0.005
0.569142 0.670916 0.005
0.568945 0.712051 0.005
0.568748 0.753187 0.005
0.568551 0.794322 0.005
0.568355 0.835458 0.005
0.568158 0.876593 0.005
0.567961 0.917729 0.005
0.567764 0.958864 0.005
0.567568 1.0 0.005
0.612625 0.0198587 0.005
0.612436 0.0606979 0.005
0.612248 0.101537 0.005
0.61206 0.142376 0.005
0.611872 0.183216 0.005
0.611684 0.224055 0.005
0.611496 0.264894 0.005
0.611307 0.305733 0.005
0.611119 0.346572 0.005
0.610931 0.387412 0.005
0.610743 0.428251 0.005
0.610555 0.46909 0.005
0.610366 0.509929 0.005
0.610178 0.550769 0.005
0.60999 0.591608 0.005
0.609802 0.632447 0.005
0.609614 0.673286 0.005
0.609425 0.714125 0.005
0.609237 0.754965 0.005
0.609049 0.795804 0.005
0.608861 0.836643 0.005
0.608673 0.877482 0.005
0.608484 0.918322 0.005
0.608296 0.959161 0.005
0.608108 1.0 0.005
0.65296 0.0269708 0.005
0.65278 0.0675137 0.005
0.652601 0.108057 0.005
0.652421 0.148599 0.005
0.652241 0.189142 0.005
0.652062 0.229685 0.005
0.651882 0.270228 0.005
0.651702 0.310771 0.005
0.651523 0.351314 0.005
0.651343 0.391857 0.005
0.651164 0.4324 0.005
0.650984 0.472943 0.005
0.650804 0.513485 0.005
0.650625 0.554028 0.005
0.650445 0.594571 0.005
0.650265 0.635114 0.005
0.650086 0.675657 0.005
0.649906 0.7162 0.005
0.649726 0.756743 0.005
0.649547 0.797286 0.005
0.649367 0.837828 0.005
0.649188 0.878371 0.005
0.649008 0.918914 0.005
0.648828 0.959457 0.005
0.648649 1.0 0.005
0.693295 0.034083 0.005
0.693124 0.0743295 0.005
0.692953 0.114576 0.005
0.692782 0.154823 0.005
0.692611 0.195069 0.005
0.69244 0.235316 0.005
0.692269 0.275562 0.005
0.692098 0.315809 0.005
0.691926 0.356055 0.005
0.691755 0.396302 0.005
0.691584 0.436548 0.005
[...]
CELL_DATA 888
SCALARS P float 1
LOOKUP_TABLE default
100087.7445667627
100087.44114393205
100125.90215676061
100085.48906482615
100125.75448429558
100184.7099215345
100082.16615075766
100123.0020437984
100184.84664668018
100275.0135183485
100077.7429155594
100118.14638860735
100180.75175792874
100275.64651328664
100413.41053782482
100072.49439242411
100111.64628496997
100173.31190253975
100269.26510397042
100414.893204696
100625.57595499825
100066.69109590612
100103.94418369452
100163.33268081026
100257.45121144407
100404.53346044691
100628.43533042418
100951.98893885956
100060.58520753152
100095.45887163795
100151.56748101207
100241.65326218546
100385.2327682299
100610.9285037241
100956.73088331774
101458.60681965476
100054.3988092561
100086.56939440602
100138.70270258913
100223.19259539407
100359.65721335502
100578.58760812503
100925.77511942273
101464.47999668594
102259.25751293992
100048.31673642402
100077.60160302056
100125.33605238918
100203.22636323803
100330.16589653712
100536.44206203776
100870.18554062129
101406.63101792654
102258.64170714813
103569.82958101574
100042.48408682588
100068.82091177779
100111.96199668357
100182.71705440537
100298.72854217158
100488.7412443622
100799.6508794461
101308.38111252365
102142.95384575328
103524.5612854658
105862.24940384836
100037.00741520042
100060.43135950125
100098.96857394296
100162.42484016217
100266.89934263653
100438.82812625177
100721.8178684981
101188.62739657663
101963.84334514468
103274.3827017791
105600.98754021575
110378.68645142247
100031.95853155387
100052.57952526119
100086.64252337354
100142.91592053656
100235.83456924125
100389.17120889171
100642.25443486669
101060.8880631986
101757.8634699252
102937.08308588846
105015.26544209273
109115.12295341556
121166.92523600897
100027.37962149846
100045.36143003489
100075.18057101536
100124.58624672655
100206.34482428423
100341.4819292036
100564.73958243031
100934.02843369888
101547.68821444371
102579.29311216461
104362.06303945111
107660.91861767965
114948.66761959926
131107.0470029251
100023.28893350964
100038.83090192113
100064.7036668221
100107.68872830927
100178.95340796714
100296.86252853266
100491.66262621508
100813.44401655749
101346.19708055217
102234.34104637212
103739.41333170098
106386.97744341176
111427.3853448389
121453.94129288805
138799.4741406299
100019.68645568923
100033.0082101481
100055.2717628335
100092.3618517183
100153.95968124094
100255.95182264356
100424.39373120847
100702.12258691748
101160.04775810622
101917.23159133515
103179.35602370095
105321.24744588838
109078.00329801551
115907.75352899678
127624.26720704752
144945.2203470686
100016.55912465649
100027.88850768792
100046.89797891096
100078.65676382018
100131.49457551305
100219.04749057817
100363.58508677864
100601.45974169747
100992.13927982122
101633.49127510905
102688.56996580801
104434.87176277742
107354.5825851599
112344.03032056728
120627.64826698892
133176.0192672904
149920.13774666394
100013.88549341894
100023.4492281393
100039.56150430156
100066.56017645559
100111.56578383516
100186.20842662241
100309.40610970285
100511.8390864578
100843.18306711741
101383.86518100595
102264.27525403573
103696.17614821148
106020.77452540345
109838.05367556083
115979.95016218314
125265.08733085515
138063.14765219623
153955.20697724057
100011.63984678013
100019.65669227009
100033.21856199717
100056.01485659613
100094.09744814454
100157.33151012832
100261.70886497987
100433.01707961445
100712.65401346357
101166.76168587286
101900.4250650987
103078.93592012681
104956.4366424692
107962.73322538185
112688.43180344177
119769.54620323995
129647.99764869887
142311.79601354775
157211.04211813115
100009.7957196193
100016.47181680442
100027.81166833328
100046.93530065882
100078.95898413224
100132.21117551351
100220.15289373911
100364.39111687074
100599.36602775844
100979.5369334634
101590.13021153044
102562.30048976075
104091.9443307926
106502.21546925309
110232.69278264062
115778.50033198377
123549.25799565602
133689.7540299938
145968.2002030834
159809.7000404192
100008.32916137192
100013.85501869788
100023.27775228329
100039.22145669837
100065.98983370476
100110.58268148355
100184.28945044996
100305.1657802315
100501.82612772699
100819.15929275523
101326.62616923661
102129.54028350693
103382.38722293287
105336.24181321223
108330.9389791865
112760.89628752609
118987.1027523454
127205.67735155372
137352.6550080267
149083.5454769209
161848.8551335751
100007.22209395483
100011.77079842544
100019.55473786703
100032.76887062966
100055.01592508002
100092.15453075839
100153.62069908336
100254.46409529513
100418.43530360081
100682.56079746316
101103.67180771862
101767.05566119649
102796.46530756025
104391.13606375158
106820.9661238962
110407.31923918704
115466.62339847059
122211.96537395995
130664.24641612309
140626.29237369122
151708.4394650421
163410.51787363103
100006.46638528463
100010.19272010199
100016.58799763543
100027.47840756863
100045.86532781513
100076.63198552428
100127.63953924103
100211.4026342493
100347.61046812394
100566.8219181423
100915.66719229138
101463.64168357439
102310.94624066843
103617.88699650977
105602.64343320834
108531.15422320325
112681.52518942693
118270.56197262605
125372.69327687215
133879.1364142524
143516.30502099893
153892.19201237283
164565.58259031136
100006.07022404335
100009.10991239244
100014.33759892664
100023.26457790995
100038.37913128853
100063.73471039817
100105.85819470201
100175.13182177108
100287.85772754675
100469.26061855552
100757.67670216344
101209.98691726726
101907.92703967865
102981.6887209079
104609.51735884792
107013.63358870914
110438.42751514705
115097.05828531427
121101.21961652841
128409.03123668685
136824.46559334995
146038.3733049146
155682.18089719335
165376.58123590052
100008.53772321595
100012.78812131073
100020.06591370188
100032.42355003054
100053.21106033902
100087.82877049198
100144.8683481624
100237.80770873245
100387.46326948075
100625.39405012275
100998.31077346417
101573.23602130149
102456.51756652174
103794.80141184747
105774.62259525276
108610.04800851262
112505.30294620396
117596.951761523
123898.23583884737
131278.0320938152
139488.60719975352
148213.86715675864
157123.31185369054
165896.4861799221
100011.96511750005
100017.85911765895
100027.90315491511
100044.85277812273
100073.15958334174
100119.91322753877
100196.23722762172
100319.30096694051
100515.103231744
100822.0835699585
101295.41003926117
102022.2939345901
103123.88013700514
104757.02317186803
107108.32013626261
110368.92018142354
114689.60015330395
120127.80320984324
126612.64592583735
133950.80109751326
141870.2786293398
150068.21956093784
158257.5040904009
166174.779622688
100016.68327754499
100024.78142275762
100038.51276821464
100061.53062803744
100099.66693527257
100162.08293268317
100262.9253012829
100423.61595399384
100675.83300999642
101065.09953601766
101663.12405687432
102570.20825512303
103918.29436155123
105869.1254884869
108598.11430498248
112261.05293844604
116948.06179307733
122642.37531387764
129206.84799484824
136410.0902641581
143976.15680833368
151628.54225626047
159125.25988345573
166251.06587951956
100023.11478100892
100034.13278176011
100052.71782790267
100083.64828494289
100134.44960248386
100216.7606799506
100348.22575826281
100554.96828416294
100874.61683980929
101366.22434118223
102112.94124193126
103225.69571911407
104843.89530472652
107125.83200593285
110225.19526054773
114253.52960785598
119239.05636945456
125100.46407779804
131653.15533797923
138647.7076649314
145818.64957805243
152923.45464653292
159761.15367710436
166164.6327914512
100031.79130537246
100046.629101704
100071.521014071
100112.62691876742
100179.50233866903
100286.66590751157
100455.66246722842
100717.62389862834
101121.21470060898
101735.41662849509
102653.38885573087
103994.65148971757
105900.1470793337
108516.27831605935
111966.12386029439
116312.26812960397
121524.46372443235
127469.5943890115
133932.95168811208
140662.93958856838
147414.11930148004
153980.88351289975
160201.4927611875
165947.07459227633
100043.37111511645
100063.14310207307
100096.12184943949
100150.12756919609
100237.08638533317
100374.75523346383
100588.89679327363
100919.63179039922
101424.17373422591
102180.65162161557
103291.09416691755
104879.54463035327
107081.90095030994
110024.83847096704
113794.57504477828
118403.82407022447
123770.99003688077
129724.59070110667
136035.0576977579
142459.9918857914
148781.25441619268
154828.27171895656
160475.8392102057
165631.8228813433
100058.6565901856
100084.72050226509
100127.92885764105
100198.04951183479
100309.69680848483
100484.17602381123
100754.553767784
101168.26214754122
101790.7196880383
102708.67618871431
104030.28826845098
105879.20330820803
108379.76089188726
111632.35197006015
115682.9623747705
120497.00163625984
125950.60304742145
131847.1927828561
137954.85283964983
144048.59476063243
149940.42354457028
155493.2258464247
160615.36864560805
165242.2365855169
100078.61007394816
100112.59404540273
100168.5657410022
100258.51793622012
100400.04600968675
100620.36837981547
100958.77167998925
101469.94139632495
102227.364886067
103324.61047515154
104872.41093333949
106988.83394660483
109780.63156849
113317.30302830068
117603.89480457827
122563.72406220931
128040.81394585677
133825.67792411117
139693.1076100033
145440.84056423293
150912.57159535092
156002.50302777922
160647.14521551278
164810.78515753636
100104.36895329355
100148.19513534733
100219.8742511866
100333.89061561796
100512.6058509928
100788.50279927143
101207.19788551386
101830.72451279027
102739.51633838427
104031.49589237642
105815.97755121512
108200.26617207841
111268.61512288667
115056.99497059383
119531.39256552298
124579.98266035652
130024.70502866895
135652.69186384237
141254.25738938578
146652.33856694808
151720.22472032314
156381.8869297289
160599.17271073055
164359.95680522927
100137.25931029396
100193.16510362747
100283.93333272007
100427.86646264311
100651.73457693649
100993.49204726347
101505.32106684716
102255.96985779035
103331.13791892694
104830.11963332191
106856.61674858232
109502.47921970015
112825.8641104107
116828.69771064489
121441.77857764276
126525.44744001444
131890.30532582168
137327.5702554124
142647.01084265654
147699.12096144317
152385.34984592377
156656.16602355792
160498.09850441015
163921.28841273068
100178.81298533286
100249.38595264606
100363.84651112523
100544.12838054435
100821.68070910904
101240.23178488233
101858.21848310345
102750.01248823668
104004.45618789585
105718.89593802688
107987.2583765288
110882.11350239642
114433.51100957762
118610.56267964513
123314.28080834528
128385.27441692728
133629.64594329213
138851.30457542368
143881.821701991
148598.35120680774
152930.3215783723
156851.85316270965
160372.8058465134
163528.1359217124
100230.80370621609
100319.53550894263
100462.76265696403
100686.35528064922
101026.7685379157
101533.40790767924
102270.30960486093
103315.96197387282
104759.8184655551
106693.8428642207
109198.52270934089
112324.25506892485
116072.41247033536
120382.40093560873
125130.83718761246
130147.31834098908
135240.15665831554
140229.41194790218
144971.23967051532
149368.91228638543
153377.30300363424
156994.50242278568
160253.01364345997
163226.70140201814
100295.67555520183
100406.38087162447
100583.89482741978
100858.3524991768
101271.2412692674
101877.28811955955
102745.10687359322
103955.45192507326
105595.60738278572
107748.86940827867
110479.09259576572
113813.01434409044
117724.14875347039
122125.84112761171
126877.4873483226
131803.24272831864
136720.68393471104
141469.37459421775
145929.08417607524
150029.3226424684
153749.2155359958
157109.83216429496
160171.44524256562
163057.36624235514
100375.97729341582
100512.78938758893
100730.60990577066
101063.93078564247
101559.11176986151
102275.52566774524
103285.03208254809
104668.51703668952
106508.27156516784
108875.87468192427
111816.33695348995
115331.87750792384
119370.86576422254
123825.22284042496
128542.69969177518
133348.72544515016
138074.27828570863
142579.9847454618
146769.56385824832
150597.68494149245
154066.2685486031
157218.1122559348
160145.21276002706
100474.38165750825
100641.78951496666
100906.32935651895
101306.7821498356
101893.9676176847
102730.97243540669
103891.28295465371
105453.56439108176
107492.44536958022
110065.23338461672
113196.68897912049
116865.41128814181
120996.80486137542
125467.09248284216
130118.04300685918
134781.50324901214
139304.7349747536
143569.95609845157
147505.61353402978
151088.65842181107
154338.9318640794
157315.67368934062
100593.72195860893
100796.49992655995
101114.43102148116
101590.33474374088
102278.82102053793
103245.51043538979
104563.65259140676
106307.39557736134
108541.18826341686
111306.15275126805
114606.25733930172
118397.87198864079
122587.37722081528
127040.3126976685
131597.20166680284
136100.79880259628
140416.35820415325
144448.3371802642
148145.88258539335
151503.18617577263
154543.3080921568
100736.93099288702
100980.03296556738
101358.12865067578
101917.6002856162
102715.97032597369
103819.9335623167
105300.57651685408
107225.22983846093
109645.92896419359
112586.62680949799
116030.62850081282
119914.41914140941
124129.69409365383
128534.99922292685
132975.1403525422
137306.28288770939
141411.89850135922
145216.32782306752
148683.15160986574
151799.50800273687
100906.96463091703
101195.40230874596
101640.34716619148
102291.04827730785
103206.8454522784
104453.89164898334
106099.11210005416
108200.98786827181
110797.48063946546
113894.46787988448
117456.18641997986
121401.71793769632
125611.82205723347
129942.55129391093
134247.01558156087
138394.7896359921
142287.10848773143
145857.96489678702
149058.32441955726
101106.70135188165
101445.41505369972
101963.59831489867
102712.49582333349
103751.91375578764
105145.80531978222
106954.98471112439
109227.05676429946
111985.24997304314
115217.21095361502
118869.08262779417
122846.48335564623
127022.27363520552
131254.3426868174
135404.96946307246
139356.26169374556
143016.55746418214
146300.35687334184
101338.85778330035
101732.55713670928
102329.88400033476
103182.95729609816
104350.64596032213
105892.91448712932
107862.54276003859
110295.06643765468
113197.78306073793
116541.01213059972
120255.61177749315
124235.06278103495
128348.6359098149
132457.84177045192
136432.72176629608
140157.81892587713
143515.16416627113
101605.88215546467
102058.88748537318
102740.54804372099
103702.57988817853
105001.2899988519
106691.05021377628
108815.01728542443
111395.27186224934
114423.08903491536
117852.90199026605
121600.8531735835
125552.32602032073
129574.45325446039
133531.05153537178
137289.2062133093
140701.28978476487
101909.84315738534
102425.94261312517
103196.21782184661
104270.59614454041
105701.26445263067
107535.07587194184
109804.32356623326
112516.7978918589
115647.96735639605
119136.8117639209
122887.35780461297
126778.30187173684
130673.03541898746
134426.52215090336
137867.32480174364
102252.34042657446
102834.61727730198
103696.73149147397
104885.20095290193
106446.46008478288
108418.32304745293
110821.04794398257
113647.26181579047
116857.12074222296
120374.96306135206
124093.79936685062
127882.42453400971
131591.0751771329
135028.7800394972
102634.40868319583
103285.09429348384
104240.85417463501
105543.31467210976
107231.47647793741
109332.69862611785
111853.72961918598
114772.05717784973
118032.24306636308
121543.58410860524
125185.58713195573
128807.69031632891
132207.0356982113
103056.3810063829
103776.69247627578
104826.56572773366
106240.9418945315
108049.58523489445
110268.15619001159
112888.71319461362
115873.06233965792
119148.34280185663
122606.92780573342
126102.51565978245
129427.25741701835
103517.8541331655
104307.76167430922
105450.3622307948
106972.07131254733
108891.97499940453
111212.12471588436
113908.70777728359
116925.53049961697
120169.01917794849
123502.12364448127
126716.40067221498
104017.45690498147
104875.56011922234
106107.44955476276
107729.22342787505
109747.2714224428
112148.1330618871
114889.53920587026
117892.80407742033
121031.3849777573
124101.70744448538
104552.77630334623
105475.89742148203
106791.13757040616
108502.10150248396
110600.15442398976
113053.09061051992
115795.12975502183
118712.09316583797
121608.54699263792
105119.97216246054
106102.7726849724
107492.18673614554
109276.51971860121
111428.64481402545
113892.30234128605
116564.56709713787
119260.955672886
105713.41349637877
106747.70868733726
108197.3977776895
110032.21423135627
112199.9447104602
114607.32035691694
117080.45315862804
106325.12656342675
107398.5929394777
108888.18728989363
110738.20760433504
112859.19306330169
115087.20060949393
106943.56451198942
108037.66631635695
109535.26626788368
111342.73037894223
113301.91154608349
107551.69809815421
108637.68472271784
110090.58004513502
111749.38902130014
108123.36300180275
109153.43369435411
110464.20019353095
108615.00940016037
109500.49043781876
108946.0115888606
SCALARS T float 1
LOOKUP_TABLE default
300.07574870930694
300.07547311854205
300.10900938658904
300.0737711462346
300.10884982535435
300.16055608147354
300.07088330420834
300.1064298871552
300.16060097293285
300.2402833535598
300.06704474102736
300.1021847864634
300.15695903327054
300.2406649656735
300.36360688544113
300.0624947579291
300.0965149650878
300.1504028826474
300.2349042151156
300.36451557828605
300.5548707595488
300.0574685336434
300.08980733278133
300.1416397509024
300.2243880385228
300.3549901151501
300.55649830203055
300.8532954105501
300.05218493334434
300.0824277972466
300.1313325753999
300.21039745981545
300.33759518313343
300.54005266431636
300.8554649464468
301.3239737270137
300.0468362640276
300.0747067692589
300.12008464675426
300.194103872419
300.3147100174652
300.51047385133694
300.82570817624867
301.3245840690088
302.0800199394175
300.0415821470472
300.06692736851915
300.10841958587525
300.17653118652333
300.2884439070359
300.47229631094615
300.77402072831154
301.2677715529965
302.06901544497345
303.3323023460524
300.0365474825871
300.0593192890022
300.096768550755
300.158527120005
300.26055255363826
300.42935456653055
300.7092317511358
301.1748542512845
301.9537345386369
303.2685742069003
305.51712887139746
300.03182362190023
300.0520582620861
300.0854679215496
300.1407567401755
300.23241213521237
300.38465045438073
300.638304484681
301.06322163856953
301.7818095978116
303.01904958871
305.2365328375263
309.67159701187944
300.02747178080017
300.0452697588761
300.07476444894536
300.12371111725156
300.2050366492985
300.3403796218936
300.5662716036561
300.94527919362883
301.5871045243525
302.69249628325616
304.6636846723574
308.49769734608526
318.6460088934686
300.0235275688508
300.03903524657653
300.06482576572654
300.1077297441122
300.1791276694457
300.29804278618633
300.49650170814255
300.82907337420187
301.3905260678822
302.35074598336473
304.03328954082696
307.1381367081852
313.6431813560584
326.4200586368338
300.02000597687123
300.0333996478248
300.05575334743196
300.09302583638384
300.15512954865164
300.25858631410307
300.4310778647525
300.7193985153314
301.2037569406271
302.0245745210395
303.43655916468816
305.93263900693916
310.5693107138736
319.14186831743723
332.20489141171174
300.016906325018
300.0283789630898
300.0475957773783
300.0797125006979
300.1332882939266
300.2225397458275
300.3711505560398
300.6188083033913
301.03261831347726
301.72746962976953
302.90354697840735
304.9184198370702
308.4227044175569
314.5364883626451
324.1585939839951
336.7094762041899
300.01421678142776
300.0239676636193
300.0403613209496
300.06782716202576
300.11370254673875
300.19013018454484
300.3172232196671
300.52839531236816
300.87942070872674
301.46394478432416
302.4400697790235
304.0750296215718
306.8108994094065
311.39191305811954
318.5900782523055
328.5257713124173
340.28838178986217
300.0119183949352
300.02014512866
300.03402926923314
300.05735199534735
300.0963645919182
300.1613766676222
300.26937290043713
300.44834298589814
300.74447083273924
301.23403149856676
302.04269038595976
303.3750361394196
305.5513745079627
309.09943101518405
314.6261787488742
322.45372389068706
332.26470181146385
343.15027832403024
300.0099886377339
300.01688136229626