# vtk DataFile Version 2.0
JuliaCFD
ASCII
DATASET UNSTRUCTURED_GRID

POINTS 1900 float
0.0 0.0 0.005
0.0 0.0416667 0.005
0.0 0.0833333 0.005
0.0 0.125 0.005
0.0 0.166667 0.005
0.0 0.208333 0.005
0.0 0.25 0.005
0.0 0.291667 0.005
0.0 0.333333 0.005
0.0 0.375 0.005
0.0 0.416667 0.005
0.0 0.458333 0.005
0.0 0.5 0.005
0.0 0.541667 0.005
0.0 0.583333 0.005
0.0 0.625 0.005
0.0 0.666667 0.005
0.0 0.708333 0.005
0.0 0.75 0.005
0.0 0.791667 0.005
0.0 0.833333 0.005
0.0 0.875 0.005
0.0 0.916667 0.005
0.0 0.958333 0.005
0.0 1.0 0.005
0.0409575 0.0 0.005
0.0409401 0.0416667 0.005
0.0409227 0.0833333 0.005
0.0409054 0.125 0.005
0.040888 0.166667 0.005
0.0408706 0.208333 0.005
0.0408532 0.25 0.005
0.0408359 0.291667 0.005
0.0408185 0.333333 0.005
0.0408011 0.375 0.005
0.0407838 0.416667 0.005
0.0407664 0.458333 0.005
0.040749 0.5 0.005
0.0407316 0.541667 0.005
0.0407143 0.583333 0.005
0.0406969 0.625 0.005
0.0406795 0.666667 0.005
0.0406621 0.708333 0.005
0.0406448 0.75 0.005
0.0406274 0.791667 0.005
0.04061 0.833333 0.005
0.0405927 0.875 0.005
0.0405753 0.916667 0.005
0.0405579 0.958333 0.005
0.0405405 1.0 0.005
0.0819149 0.0 0.005
0.0818802 0.0416667 0.005
0.0818455 0.0833333 0.005
0.0818107 0.125 0.005
0.081776 0.166667 0.005
0.0817412 0.208333 0.005
0.0817065 0.25 0.005
0.0816717 0.291667 0.005
0.081637 0.333333 0.005
0.0816022 0.375 0.005
0.0815675 0.416667 0.005
0.0815328 0.458333 0.005
0.081498 0.5 0.005
0.0814633 0.541667 0.005
0.0814285 0.583333 0.005
0.0813938 0.625 0.005
0.081359 0.666667 0.005
0.0813243 0.708333 0.005
0.0812895 0.75 0.005
0.0812548 0.791667 0.005
0.0812201 0.833333 0.005
0.0811853 0.875 0.005
0.0811506 0.916667 0.005
0.0811158 0.958333 0.005
0.0810811 1.0 0.005
0.122872 0.0 0.005
0.12282 0.0416667 0.005
0.122768 0.0833333 0.005
0.122716 0.125 0.005
0.122664 0.166667 0.005
0.122612 0.208333 0.005
0.12256 0.25 0.005
0.122508 0.291667 0.005
0.122455 0.333333 0.005
0.122403 0.375 0.005
0.122351 0.416667 0.005
0.122299 0.458333 0.005
0.122247 0.5 0.005
0.122195 0.541667 0.005
0.122143 0.583333 0.005
0.122091 0.625 0.005
0.122039 0.666667 0.005
0.121986 0.708333 0.005
0.121934 0.75 0.005
0.121882 0.791667 0.005
0.12183 0.833333 0.005
0.121778 0.875 0.005
0.121726 0.916667 0.005
0.121674 0.958333 0.005
0.121622 1.0 0.005
0.16383 0.0 0.005
0.16376 0.0416667 0.005
0.163691 0.0833333 0.005
0.163621 0.125 0.005
0.163552 0.166667 0.005
0.163482 0.208333 0.005
0.163413 0.25 0.005
0.163343 0.291667 0.005
0.163274 0.333333 0.005
0.163204 0.375 0.005
0.163135 0.416667 0.005
0.163066 0.458333 0.005
0.162996 0.5 0.005
0.162927 0.541667 0.005
0.162857 0.583333 0.005
0.162788 0.625 0.005
0.162718 0.666667 0.005
0.162649 0.708333 0.005
0.162579 0.75 0.005
0.16251 0.791667 0.005
0.16244 0.833333 0.005
0.162371 0.875 0.005
0.162301 0.916667 0.005
0.162232 0.958333 0.005
0.162162 1.0 0.005
0.204787 0.0 0.005
0.2047 0.0416667 0.005
0.204614 0.0833333 0.005
0.204527 0.125 0.005
0.20444 0.166667 0.005
0.204353 0.208333 0.005
0.204266 0.25 0.005
0.204179 0.291667 0.005
0.204092 0.333333 0.005
0.204006 0.375 0.005
0.203919 0.416667 0.005
0.203832 0.458333 0.005
0.203745 0.5 0.005
0.203658 0.541667 0.005
0.203571 0.583333 0.005
0.203484 0.625 0.005
0.203398 0.666667 0.005
0.203311 0.708333 0.005
0.203224 0.75 0.005
0.203137 0.791667 0.005
0.20305 0.833333 0.005
0.202963 0.875 0.005
0.202876 0.916667 0.005
0.20279 0.958333 0.005
0.202703 1.0 0.005
0.245745 0.0 0.005
0.245641 0.0416667 0.005
0.245536 0.0833333 0.005
0.245432 0.125 0.005
0.245328 0.166667 0.005
0.245224 0.208333 0.005
0.245119 0.25 0.005
0.245015 0.291667 0.005
0.244911 0.333333 0.005
0.244807 0.375 0.005
0.244703 0.416667 0.005
0.244598 0.458333 0.005
0.244494 0.5 0.005
0.24439 0.541667 0.005
0.244286 0.583333 0.005
0.244181 0.625 0.005
0.244077 0.666667 0.005
0.243973 0.708333 0.005
0.243869 0.75 0.005
0.243764 0.791667 0.005
0.24366 0.833333 0.005
0.243556 0.875 0.005
0.243452 0.916667 0.005
0.243347 0.958333 0.005
0.243243 1.0 0.005
0.286702 0.0 0.005
0.286581 0.0416667 0.005
0.286459 0.0833333 0.005
0.286337 0.125 0.005
0.286216 0.166667 0.005
0.286094 0.208333 0.005
0.285973 0.25 0.005
0.285851 0.291667 0.005
0.285729 0.333333 0.005
0.285608 0.375 0.005
0.285486 0.416667 0.005
0.285365 0.458333 0.005
0.285243 0.5 0.005
0.285121 0.541667 0.005
0.285 0.583333 0.005
0.284878 0.625 0.005
0.284757 0.666667 0.005
0.284635 0.708333 0.005
0.284513 0.75 0.005
0.284392 0.791667 0.005
0.28427 0.833333 0.005
0.284149 0.875 0.005
0.284027 0.916667 0.005
0.283905 0.958333 0.005
0.283784 1.0 0.005
0.32766 0.0 0.005
0.327521 0.0416667 0.005
0.327382 0.0833333 0.005
0.327243 0.125 0.005
0.327104 0.166667 0.005
0.326965 0.208333 0.005
0.326826 0.25 0.005
0.326687 0.291667 0.005
0.326548 0.333333 0.005
0.326409 0.375 0.005
0.32627 0.416667 0.005
0.326131 0.458333 0.005
0.325992 0.5 0.005
0.325853 0.541667 0.005
0.325714 0.583333 0.005
0.325575 0.625 0.005
0.325436 0.666667 0.005
0.325297 0.708333 0.005
0.325158 0.75 0.005
0.325019 0.791667 0.005
0.32488 0.833333 0.005
0.324741 0.875 0.005
0.324602 0.916667 0.005
0.324463 0.958333 0.005
0.324324 1.0 0.005
0.368617 0.0 0.005
0.368461 0.0416667 0.005
0.368305 0.0833333 0.005
0.368148 0.125 0.005
0.367992 0.166667 0.005
0.367835 0.208333 0.005
0.367679 0.25 0.005
0.367523 0.291667 0.005
0.367366 0.333333 0.005
0.36721 0.375 0.005
0.367054 0.416667 0.005
0.366897 0.458333 0.005
0.366741 0.5 0.005
0.366585 0.541667 0.005
0.366428 0.583333 0.005
0.366272 0.625 0.005
0.366116 0.666667 0.005
0.365959 0.708333 0.005
0.365803 0.75 0.005
0.365647 0.791667 0.005
0.36549 0.833333 0.005
0.365334 0.875 0.005
0.365178 0.916667 0.005
0.365021 0.958333 0.005
0.364865 1.0 0.005
0.409575 0.0 0.005
0.409401 0.0416667 0.005
0.409227 0.0833333 0.005
0.409054 0.125 0.005
0.40888 0.166667 0.005
0.408706 0.208333 0.005
0.408532 0.25 0.005
0.408359 0.291667 0.005
0.408185 0.333333 0.005
0.408011 0.375 0.005
0.407838 0.416667 0.005
0.407664 0.458333 0.005
0.40749 0.5 0.005
0.407316 0.541667 0.005
0.407143 0.583333 0.005
0.406969 0.625 0.005
0.406795 0.666667 0.005
0.406621 0.708333 0.005
0.406448 0.75 0.005
0.406274 0.791667 0.005
0.4061 0.833333 0.005
0.405927 0.875 0.005
0.405753 0.916667 0.005
0.405579 0.958333 0.005
0.405405 1.0 0.005
0.450532 0.0 0.005
0.450341 0.0416667 0.005
0.45015 0.0833333 0.005
0.449959 0.125 0.005
0.449768 0.166667 0.005
0.449577 0.208333 0.005
0.449386 0.25 0.005
0.449195 0.291667 0.005
0.449003 0.333333 0.005
0.448812 0.375 0.005
0.448621 0.416667 0.005
0.44843 0.458333 0.005
0.448239 0.5 0.005
0.448048 0.541667 0.005
0.447857 0.583333 0.005
0.447666 0.625 0.005
0.447475 0.666667 0.005
0.447284 0.708333 0.005
0.447093 0.75 0.005
0.446901 0.791667 0.005
0.44671 0.833333 0.005
0.446519 0.875 0.005
0.446328 0.916667 0.005
0.446137 0.958333 0.005
0.445946 1.0 0.005
0.49149 0.0 0.005
0.491281 0.0416667 0.005
0.491073 0.0833333 0.005
0.490864 0.125 0.005
0.490656 0.166667 0.005
0.490447 0.208333 0.005
0.490239 0.25 0.005
0.49003 0.291667 0.005
0.489822 0.333333 0.005
0.489613 0.375 0.005
0.489405 0.416667 0.005
0.489197 0.458333 0.005
0.488988 0.5 0.005
0.48878 0.541667 0.005
0.488571 0.583333 0.005
0.488363 0.625 0.005
0.488154 0.666667 0.005
0.487946 0.708333 0.005
0.487737 0.75 0.005
0.487529 0.791667 0.005
0.48732 0.833333 0.005
0.487112 0.875 0.005
0.486903 0.916667 0.005
0.486695 0.958333 0.005
0.486486 1.0 0.005
0.531954 0.00563435 0.005
0.531749 0.0470663 0.005
0.531544 0.0884982 0.005
0.531338 0.12993 0.005
0.531133 0.171362 0.005
0.530928 0.212794 0.005
0.530722 0.254226 0.005
0.530517 0.295658 0.005
0.530312 0.33709 0.005
0.530107 0.378521 0.005
0.529901 0.419953 0.005
0.529696 0.461385 0.005
0.529491 0.502817 0.005
0.529285 0.544249 0.005
0.52908 0.585681 0.005
0.528875 0.627113 0.005
0.528669 0.668545 0.005
0.528464 0.709977 0.005
0.528259 0.751409 0.005
0.528054 0.79284 0.005
0.527848 0.834272 0.005
0.527643 0.875704 0.005
0.527438 0.917136 0.005
0.527232 0.958568 0.005
0.527027 1.0 0.005
0.572289 0.0127465 0.005
0.572093 0.0538821 0.005
0.571896 0.0950177 0.005
0.571699 0.136153 0.005
0.571502 0.177289 0.005
0.571306 0.218424 0.005
0.571109 0.25956 0.005
0.570912 0.300695 0.005
0.570715 0.341831 0.005
0.570519 0.382967 0.005
0.570322 0.424102 0.005
0.570125 0.465238 0.005
0.569928 0.506373 0.005
0.569732 0.547509 0.005
0.569535 0.588644 0.005
0.569338 0.62978 0.005
0.569142 0.670916 0.005
0.568945 0.712051 0.005
0.568748 0.753187 0.005
0.568551 0.794322 0.005
0.568355 0.835458 0.005
0.568158 0.876593 0.005
0.567961 0.917729 0.005
0.567764 0.958864 0.005
0.567568 1.0 0.005
0.612625 0.0198587 0.005
0.612436 0.0606979 0.005
0.612248 0.101537 0.005
0.61206 0.142376 0.005
0.611872 0.183216 0.005
0.611684 0.224055 0.005
0.611496 0.264894 0.005
0.611307 0.305733 0.005
0.611119 0.346572 0.005
0.610931 0.387412 0.005
0.610743 0.428251 0.005
0.610555 0.46909 0.005
0.610366 0.509929 0.005
0.610178 0.550769 0.005
0.60999 0.591608 0.005
0.609802 0.632447 0.005
0.609614 0.673286 0.005
0.609425 0.714125 0.005
0.609237 0.754965 0.005
0.609049 0.795804 0.005
0.608861 0.836643 0.005
0.608673 0.877482 0.005
0.608484 0.918322 0.005
0.608296 0.959161 0.005
0.608108 1.0 0.005
0.65296 0.0269708 0.005
0.65278 0.0675137 0.005
0.652601 0.108057 0.005
0.652421 0.148599 0.005
0.652241 0.189142 0.005
0.652062 0.229685 0.005
0.651882 0.270228 0.005
0.651702 0.310771 0.005
0.651523 0.351314 0.005
0.651343 0.391857 0.005
0.651164 0.4324 0.005
0.650984 0.472943 0.005
0.650804 0.513485 0.005
0.650625 0.554028 0.005
0.650445 0.594571 0.005
0.650265 0.635114 0.005
0.650086 0.675657 0.005
0.649906 0.7162 0.005
0.649726 0.756743 0.005
0.649547 0.797286 0.005
0.649367 0.837828 0.005
0.649188 0.878371 0.005
0.649008 0.918914 0.005
0.648828 0.959457 0.005
0.648649 1.0 0.005
0.693295 0.034083 0.005
0.693124 0.0743295 0.005
0.692953 0.114576 0.005
0.692782 0.154823 0.005
0.692611 0.195069 0.005
0.69244 0.235316 0.005
0.692269 0.275562 0.005
0.692098 0.315809 0.005
0.691926 0.356055 0.005
0.691755 0.396302 0.005
0.691584 0.436548 0.005
[...]
CELL_DATA 888
SCALARS P float 1
LOOKUP_TABLE default
100147.6874739381
100147.33819459411
100207.98324341318
100144.93133074556
100207.85540902076
100295.58272125827
100140.79840938475
100204.51420746215
100295.85641917857
100423.24707707125
100135.252083293
100198.55759506658
100291.0093138675
100424.20482647073
100610.01096745928
100128.60669556199
100190.51507504229
100282.08355495182
100416.86494962031
100612.10819009841
100884.63616713701
100121.17231503177
100180.89024105892
100269.99814619386
100403.04810538386
100600.52100038317
100888.55154283781
101291.49110354309
100113.24159316704
100170.16014827939
100255.60127796406
100384.37918388816
100578.51084464442
100869.45396790955
101297.9578346108
101901.40096321108
100105.07764017787
100158.76149965751
100239.66620263825
100362.32529755453
100549.01531436748
100833.41954382956
101264.89756381251
101910.00412488902
102834.25903282657
100096.90618740073
100147.07747788838
100222.87376399791
100338.17357171056
100514.61716635081
100785.89769587126
101204.21401871272
101849.27716830815
102837.83514931145
104313.56522855522
100088.91240398001
100135.42995181422
100205.79892784999
100313.00694593087
100477.48078382551
100731.48187420568
101126.25583273283
101743.89103091438
102718.00130260798
104274.3829902663
106821.3613197412
100081.241483196
100124.07782268831
100188.90755324013
100287.69919162468
100439.33553040816
100673.80709477706
101039.20217589418
101613.80222275287
102528.69814341201
104017.75429123802
106567.56687950547
111616.30815097492
100074.00199547087
100113.2203028593
100172.56094569428
100262.92341896977
100401.49724899982
100615.59563579161
100949.05854102515
101473.35584199653
102308.20886586004
103665.57850511138
105970.76066996832
110355.51780710148
122787.82977418872
100067.27070013528
100103.00328863887
100157.02659298856
100239.17623223274
100364.92326135514
100558.78258287189
100859.968685716
101332.0652388684
102080.47793116973
103287.29117518169
105295.403218829
108880.19764592627
116531.42982335597
133150.37122784965
100061.09804947716
100093.52739076634
100142.49198850777
100216.80469115314
100330.27143255512
100504.66897897316
100774.63129922231
101195.84224620934
101859.32278474097
102918.10161363878
104643.78025736619
107572.8844742881
112967.78083390894
123432.66877114105
141284.38386201116
100055.51379998508
100084.85633584148
100129.0791100278
100196.03473866175
100297.96483836572
100454.07199150878
100694.68285969699
101068.0943789374
101652.10974426377
102574.30692151084
104050.4742896375
106466.60335438511
110568.90727206806
117825.15633302076
130041.32774262903
147894.92038634245
100050.53225031465
100077.02538435471
100116.85844076304
100176.99843557437
100268.24800899891
100407.4496713855
100621.00745447775
100950.56560087451
101462.28913033027
102262.35977893323
103523.79878661569
105535.2962697874
108790.25496205215
114195.7054979078
122973.5415663544
136069.1520280583
153358.4530177209
100046.15703377422
100070.04874460747
100105.86190336684
100159.75674070211
100241.23223786314
100365.0057785297
100553.97924449235
100843.93525124578
101291.01531306292
101983.69887243018
103062.0990108351
104749.07367782411
107397.29219502654
111618.92523549184
118247.89864322219
128086.66326460197
141467.00255502114
157905.00876490495
100042.38547892708
100063.9263806696
100096.09395566887
100144.32044123946
100216.93636873951
100326.76803935869
100493.6314722729
100748.21411332295
101138.12882591553
101737.27302414614
102660.15139130052
104082.95265361952
106271.44300211323
109668.87903160194
114871.70493067717
122506.99705074892
132988.91660458758
146258.0940853674
161693.4029057939
100039.21247938342
100058.65006185843
100087.54109923393
100130.6659340708
100195.31572111082
100292.64926556483
100439.78564066532
100663.02226866847
101002.75211195789
101520.87569016307
102311.69921972918
103517.00219385039
105344.3345637812
108131.17430998117
112326.01841994999
118421.1068248149
126806.61381593012
137590.00539365696
150485.45068358464
164843.3209056792
100036.63435882423
100054.2088159088
100080.1806497712
100118.74975782767
100176.28813773562
100262.49165604982
100392.13828491567
100587.76064668375
100883.65847122569
101331.8393015129
102010.48258741973
103035.20400801828
104572.04027768146
106886.90724709876
110330.8569559377
115300.42372300307
122144.45293845938
131029.88877028215
141848.18155339398
154196.5934216484
167449.8220235189
100034.6532636538
100050.59446850025
100073.98810433724
100108.51923444304
100159.75062196402
100236.10064580645
100350.32233445953
100521.72661970255
100779.48138683324
101167.40548973272
101750.67788667511
102624.5287708131
103924.0617514435
105863.54239351966
108725.72287151174
112838.07899321982
118511.3142814819
125936.82098239128
135098.12802761456
145748.60366513382
157438.39008951987
169591.67780274918
100033.28306536989
100047.80837242078
100068.94514823754
100099.9238815002
100145.5969454078
100213.26991190141
100313.948767577
100464.19359164116
100688.84304271017
101024.92353880986
101527.03831019792
102274.2421135055
103377.80935503295
105013.01280908966
107411.9785046109
110849.80690266572
115604.38332014313
121877.88917517799
129714.13010393926
138960.67728910857
149291.9511645911
160255.69387607084
171336.1482413147
100032.559369364
100045.87114133786
100065.0497423861
100092.92590478377
100133.73016094025
100193.80093840696
100282.63755669986
100414.45295824857
100610.43336082506
100901.9488820809
101334.93368000936
101975.43106242034
102915.91397371162
104301.30271229085
106324.40795148634
109218.88562914741
113233.4229985991
118573.07660767391
125325.78170555357
133411.4588576545
142586.41118853432
152488.8584446936
162691.0910734988
172741.84243987125
100044.83963560541
100062.33105445614
100087.5149774421
100124.07856804607
100177.52017824743
100256.04116894885
100371.85093860669
100543.0488961973
100796.27875701051
101170.32532202646
101720.65884154831
102524.6631999578
103703.03145013648
105417.25725097295
107866.90853150733
111273.9259159156
115840.21149165425
121685.42953191759
128790.50673808464
136980.37152232116
145957.67079526547
155354.91094686597
164784.35686527484
173857.33555330342
100060.87564970828
100083.72988859534
100116.61476327569
100164.29898024655
100233.86532791867
100335.81006397883
100485.61898990344
100705.97577428837
101029.7374606914
101503.69647287505
102192.9822719719
103198.67020754529
104656.76568546696
106738.20496634977
109640.19964182666
113556.46842832737
118627.4616407246
124884.74335014877
132217.78920919233
140385.66330403113
149066.95746782207
157909.42368006523
166571.98197893263
174727.5724106675
100081.69665430339
100111.38718002461
100154.07977668267
100215.89070605002
100305.84987415318
100437.22518276107
100629.36922097375
100910.19982045401
101319.34254860782
101911.86275628935
102772.78932290105
104017.09348323909
105791.41271709475
108270.12398365498
111635.19876350548
116038.07969469453
121549.73167730347
128119.06336047173
135563.71186342463
143603.10956859848
151913.94792661763
160173.0368642869
168088.6905437361
175386.62681166644
100108.5728785262
100146.91847085101
100202.00948871273
100281.61567569173
100397.11670556513
100565.0536801398
100809.20977572593
101163.2525144251
101673.92475607876
102413.01216727275
103477.99307719353
104994.77075746599
107116.78639037265
110012.03263965108
113835.06456790812
118684.86899097639
124561.52812117548
131342.13081267235
138793.32440386998
146617.1366330826
154503.6745972563
162167.6253514174
169362.92857181537
175868.43423671953
100143.05753851648
100192.28060096118
100262.92004408603
100364.73972119023
100511.89740785626
100724.69852900165
101031.83197065676
101473.11115591481
102109.31633630299
103023.31267361325
104323.25320685096
106143.57516892279
108637.33458522931
111956.13421706005
116216.66586606578
121460.0149004755
127619.30275287593
134514.23655519876
141879.98502407933
149418.93645698682
156844.82547134478
163913.9921257104
170424.3485042594
176197.8134757033
100187.03017846549
100249.8183763992
100339.79013806998
100469.07003641828
100655.02223948312
100922.15033102618
101304.46190387428
101853.56932288593
102640.04244995065
103756.81679881016
105321.33867134845
107471.49260863838
110351.89961349808
114088.32889460515
118752.17017187791
124325.53166208518
130682.85676726705
137601.95137161348
144803.96691240947
152004.1356657298
158948.03743162856
165432.13375928564
171295.42501392937
176401.4739567822
100242.74220720738
100322.3088847631
100436.10113598667
100598.97711554587
100831.90275526792
101163.98718351209
101639.16283584222
102317.63552630215
103279.28946280829
104626.47500354308
106482.37028247114
108982.09013308569
112253.74696376016
116389.24157195332
121410.58195161434
127243.9823405505
133715.93894721093
140577.85600620887
147551.36281157302
154373.47357913302
160825.2768819509
166741.65631674835
171999.49241092856
176494.1051578258
100312.86061456235
100413.0041480114
100555.86877316587
100759.4018398428
101048.56187840053
101460.7995988192
102047.56189454673
102877.5434156774
104039.76644859546
105643.53973874485
107813.11740456204
110674.20437648575
114330.79194966091
118835.18308019104
124159.17624315382
130179.4193673174
136686.68520123328
143420.4007266615
150113.11541830594
156529.7268381413
162488.6392955066
167860.67841091208
172554.71764091466
176498.78374987855
100400.51228997823
100525.67004819974
100703.66964182832
100955.9088644725
101314.35713986645
101823.00997619843
102540.94861425302
103545.47923665615
104933.13108053975
106816.80330260078
109316.52077649605
112541.82541869418
116566.28400740256
121399.27527105833
126964.77741110648
133098.50067918914
139567.7643926072
146111.66106828896
152483.28437435735
158478.62128260566
163951.11360892933
168805.41826622302
172979.06001431597
176426.31988009362
100509.32538882566
100664.62369471593
100884.70491248922
101196.85465139651
101638.6829249426
102260.99813026248
103130.83404936377
104333.09628090617
105969.4034433157
108152.12371114243
110991.38881491254
114574.34621983588
118939.44098485385
124052.53017759528
129794.7550749659
135970.25765057997
142335.9945962491
148639.6713446413
154659.715436619
160225.73828946796
165224.34098374817
169590.0825046745
173287.37422180874
176295.25936331978
100643.47495960865
100834.80825557174
101106.54652938014
101490.76099570122
102031.07857314903
102785.54229736462
103828.55675532605
105250.95046070105
107156.36378177279
109651.95750049254
112832.24064161423
116756.77945262649
121426.2789786207
126764.79803303254
132617.73615891847
138768.01845958983
144971.2933294811
150993.4975257716
156641.3016081106
161777.02733346706
166319.2500751922
170228.8009976702
173495.0764437779
176123.85569065285
100807.76121362831
101043.22508796192
101377.0120761272
101846.42993572965
102501.60339739498
103407.5209546457
104644.86056674545
106308.07062616933
108499.08790893748
111314.93896181847
114829.35420364379
119070.37125217935
124000.28649456336
129505.63320802784
135403.4920482821
141466.76425898945
147458.07875223353
153166.01673382727
158428.36875819336
163138.98626918285
167245.14516476032
170733.31505622264
173617.28657851685
175946.636179362
101008.87216780866
101297.18496069088
101704.29368622853
102273.252369031
103060.58113494406
104137.53670263471
105589.39175843328
107511.35412278533
109999.47597638266
113135.85214249734
116968.85944035079
121492.97981375018
126633.42390070128
132244.51238000154
138124.5485996819
144044.2017066633
149781.34627779378
155151.12842460995
160021.2826807132
164316.42780277
168010.41576840664
171114.3861919555
173674.43046730774
175807.04993473133
101253.82094163999
101604.42029163023
102097.21055690342
102781.00803920698
103718.33456919505
104985.51237857931
106670.23102151969
108865.08105849558
111655.91186726859
115105.31642844007
119233.1434219005
123999.34163820195
129295.99154459486
134951.8860296492
140754.54204395268
146480.95216687635
151929.2985361893
156942.9761769052
161419.52002059738
165312.17671027614
168619.82917099283
171379.8386755572
173687.0777669423
101550.08316816222
101973.29738071411
102565.03148185687
103379.61822014287
104484.77112123146
105960.23656146906
107893.415599247
110370.50257398056
113462.95417298394
117209.99745631326
121600.99778084265
126562.85107794157
131958.25480759845
137598.6508832276
143268.84092166685
148758.47982204932
153889.67466694457
158534.35526498657
162619.79979615653
166124.67763263668
169070.70851547903
171528.08658824
101905.76072362985
102412.6878658317
103117.27886600242
104078.83985089533
105368.99989722639
107068.84687928863
109262.32464889534
112025.44171727392
115411.23825006794
119432.70788933504
124048.14757581169
129153.93052215724
134589.51260257806
140156.445610052
145643.44231468145
150858.41948740068
155649.42156132037
159916.8424548221
163613.51953873306
166740.76646362906
169339.4847801956
102329.47211166078
102931.7639376486
103763.45546521021
104887.86247948198
106378.89117747698
108316.33334686622
110777.33721973395
113823.85776006212
117486.99409962549
121752.02150366291
126546.86575721538
131741.43106449328
137158.64030820964
142596.3347044315
147854.04572962306
152761.35821839352
157192.25474313553
161073.12183134048
164377.914301672
167116.7244367705
102830.18590734353
103539.76973919159
104512.69281772642
105814.91202098642
107520.52201077827
109705.06609625304
112435.33685105272
115755.74704917494
119672.86493444834
124143.2890919631
129067.38280232568
134293.19920962717
139633.4748753339
144888.77599046493
149874.87941601963
154443.41720081685
158493.73301332383
161969.99906353783
164849.3848356693
103416.96311848977
104245.71791454898
105373.36323610452
106866.79031898687
108797.66950471472
111234.18833412223
114229.25340353457
117806.41947826096
121946.6513456399
126578.24235220246
131576.63276258737
136774.49295700158
141979.93559878494
147002.221168611
151675.29511148104
155872.3789215916
159509.18173323004
162526.81413132013
104098.70081040083
105057.99724542044
106352.65770352664
108048.26629767158
110211.30172817169
112899.18892919728
116147.56179452469
119957.03373470156
124281.68169824769
129023.68266864591
134038.58853255387
139147.5902821251
144160.58037233303
148899.04010877165
153214.56994143542
156993.3537436114
160141.92982673697
104883.76872444391
105983.95368289073
107455.98453216428
109361.55212738039
111758.75187813978
114691.08334968079
118174.0717881565
122183.45897536763
126646.95419669128
131443.8531583569
136412.800844707
141370.27934877638
146131.41756659508
150530.10023536417
154426.58567155007
157692.5043683886
105779.55694685846
107029.39977759587
108686.4784214188
110805.73825809946
113433.69113346418
116596.43201107677
120287.24056253865
124456.19853662356
129006.09554359922
133795.88710564113
138652.90404129855
143392.50661823625
147835.60513688743
151819.45545944202
155183.5871210615
106792.01674273958
108197.99611661794
110044.36502781906
112376.00540997104
115224.59931856941
118596.04774241599
122459.72495966175
126739.74133261865
131316.2594844666
136031.46198735805
140704.94881239417
145150.3607139109
149187.52155025548
152625.3500317977
107925.09887323047
109490.66359061019
111525.99317504386
114062.74330028454
117114.5233781749
120664.6728411705
124657.13225924969
128991.41923385067
133527.0113317878
138091.68051761968
142497.66040151168
146550.26889407675
150033.10301248057
109180.03292473148
110904.78103714992
113123.60989736114
115851.38936170342
119080.4396167062
122769.85388545974
126837.57316798095
131159.73646035054
135576.0434411752
139900.84169858924
143929.7456436139
147426.1907162034
110554.74994164227
112433.438621756
114823.77412323628
117720.2951285982
121091.68522456371
124870.78971125974
128949.53518086944
133180.7546668167
137383.85726058314
141350.3773009369
144826.85602466686
112042.87263811634
114064.54591070124
116606.87713145293
119640.88478970261
123108.93470843085
126916.23735803668
130927.98018190225
134971.74100815775
138837.2698327878
142259.46422131537
113632.95385037699
115779.65316766716
118445.69783392295
121575.24498521257
125081.86189185976
128840.9770820046
132688.2207347574
136415.24141159764
139748.88985545622
115307.228053083
117552.75171792525
120303.86227705292
123474.18679970583
126945.41811694548
130559.55936792944
134110.68909420707
137321.50465630853
117040.35344018253
119348.6322755
122133.31704888433
125273.9592995791
128614.40585325351
131951.39652984455
135004.2437206316
118797.93619685835
121120.63929240577
123871.82357192268
126889.8275911297
129968.95917711384
132826.0525688636
120534.11479101535
122807.26869291843
125435.47462585788
128202.72301557995
130820.11072579202
122188.16909191769
124326.31775586109
126707.37626470032
129027.9556343949
123678.82510524517
125562.70024046932
127506.2528291887
124892.20322916738
126338.73038577652
125653.58553345961
SCALARS T float 1
LOOKUP_TABLE default
300.1274766664504
300.12715535800726
300.1800061353682
300.12505175295183
300.1798510657677
300.256754064098
300.1214528674717
300.17690391192707
300.25689188635636
300.36942522108455
300.1166308498651
300.1716834273915
300.252561887465
300.3700372267341
300.5358051698392
300.1108598017867
300.16465240312664
300.24467183519414
300.36337174151925
300.53714643266744
300.7833394062407
300.1044099737377
300.1562522983733
300.23402964605947
300.3510242988884
300.5264092065668
300.78568675489845
301.1552892654892
300.09753602232087
300.146901193283
300.22138376778713
300.3344343666743
300.5064754453195
300.76757208378456
301.1585717379101
301.7219385836146
300.090466375142
300.13698098460105
300.20741624296704
300.31490676660917
300.47997201225166
300.7344211117527
301.12642997082537
301.7241687164386
302.6028534182397
300.08339646843183
300.1268256836094
300.19272582711
300.29358509857906
300.449216699287
300.6911590807423
301.069623049904
301.6637983493398
302.59403641397535
304.01631664849896
300.0764861077502
300.1167147400752
300.17781585193336
300.27142748568355
300.4161477066594
300.64194803692067
300.9976079015343
301.5633976644872
302.4732125110608
303.9551705498766
306.4055100061897
300.06986013122986
300.1068718864771
300.16309179038194
300.2492020022673
300.3823042706605
300.5900688140927
300.91786505995685
301.44138332528917
302.2901669720538
303.6967325813112
306.127092779138
310.8090870570082
300.0636114675171
300.09746832937196
300.14886593940787
300.227495387979
300.34884679274165
300.5379569208488
300.8358523514526
301.31097629578215
302.08045177357485
303.35357270428875
305.53996843240543
309.6355080635357
320.06122703635504
300.05780543206185
300.08862860868965
300.1353675560481
300.20673599892166
300.31660911463314
300.48732045651036
300.75528748506554
301.1808596561614
301.86623021895707
302.99021072984317
304.88527480351587
308.25494939650093
315.06035732534923
328.11599319677015
300.0524845901314
300.0804378335319
300.12275559023993
300.1872191400881
300.28615475286745
300.4392859860734
300.678542505922
301.05632530058455
301.6601076400756
302.63925945194666
304.2581358020182
307.0161625094754
311.9627636800713
320.8553066466413
334.18546515558955
300.0476736790154
300.0729491668282
300.1111318213604
300.1691333391029
300.25783747895855
300.39454102837254
300.60700966520824
300.94031969549786
301.46858766804445
302.3154696031697
303.69106509474386
305.9612868585922
309.77619033639905
316.2345414911004
326.18048939230226
338.9828085967382
300.04338417755685
300.06619125345395
300.10055342648496
300.1525851630527
300.2318534887312
300.353451749676
300.5413968994183
300.83425036183456
301.294494580835
302.0242441690893
303.1914965346118
305.07292084540705
308.11438003243916
313.05073776389463
320.6142122032315
330.8680841445647
342.8638237982994
300.0396184672648
300.06017471821696
300.0910444539518
300.1376197576209
300.20828298020973
300.3161605357683
300.481957068191
300.73855883293464
301.1385318688193
301.76625930839316
302.75709901279475
304.32564581366927
306.79885679323115
310.70337570387426
316.6204838182921
324.82165173431787
334.9393292857593
346.0373309070453
300.0363736024033
300.0548980934145
300.08260557890736
300.1242394687825