# vtk DataFile Version 2.0
JuliaCFD
ASCII
DATASET UNSTRUCTURED_GRID

POINTS 1900 float
0.0 0.0 0.005
0.0 0.0416667 0.005
0.0 0.0833333 0.005
0.0 0.125 0.005
0.0 0.166667 0.005
0.0 0.208333 0.005
0.0 0.25 0.005
0.0 0.291667 0.005
0.0 0.333333 0.005
0.0 0.375 0.005
0.0 0.416667 0.005
0.0 0.458333 0.005
0.0 0.5 0.005
0.0 0.541667 0.005
0.0 0.583333 0.005
0.0 0.625 0.005
0.0 0.666667 0.005
0.0 0.708333 0.005
0.0 0.75 0.005
0.0 0.791667 0.005
0.0 0.833333 0.005
0.0 0.875 0.005
0.0 0.916667 0.005
0.0 0.958333 0.005
0.0 1.0 0.005
0.0409575 0.0 0.005
0.0409401 0.0416667 0.005
0.0409227 0.0833333 0.005
0.0409054 0.125 0.005
0.040888 0.166667 0.005
0.0408706 0.208333 0.005
0.0408532 0.25 0.005
0.0408359 0.291667 0.005
0.0408185 0.333333 0.005
0.0408011 0.375 0.005
0.0407838 0.416667 0.005
0.0407664 0.458333 0.005
0.040749 0.5 0.005
0.0407316 0.541667 0.005
0.0407143 0.583333 0.005
0.0406969 0.625 0.005
0.0406795 0.666667 0.005
0.0406621 0.708333 0.005
0.0406448 0.75 0.005
0.0406274 0.791667 0.005
0.04061 0.833333 0.005
0.0405927 0.875 0.005
0.0405753 0.916667 0.005
0.0405579 0.958333 0.005
0.0405405 1.0 0.005
0.0819149 0.0 0.005
0.0818802 0.0416667 0.005
0.0818455 0.0833333 0.005
0.0818107 0.125 0.005
0.081776 0.166667 0.005
0.0817412 0.208333 0.005
0.0817065 0.25 0.005
0.0816717 0.291667 0.005
0.081637 0.333333 0.005
0.0816022 0.375 0.005
0.0815675 0.416667 0.005
0.0815328 0.458333 0.005
0.081498 0.5 0.005
0.0814633 0.541667 0.005
0.0814285 0.583333 0.005
0.0813938 0.625 0.005
0.081359 0.666667 0.005
0.0813243 0.708333 0.005
0.0812895 0.75 0.005
0.0812548 0.791667 0.005
0.0812201 0.833333 0.005
0.0811853 0.875 0.005
0.0811506 0.916667 0.005
0.0811158 0.958333 0.005
0.0810811 1.0 0.005
0.122872 0.0 0.005
0.12282 0.0416667 0.005
0.122768 0.0833333 0.005
0.122716 0.125 0.005
0.122664 0.166667 0.005
0.122612 0.208333 0.005
0.12256 0.25 0.005
0.122508 0.291667 0.005
0.122455 0.333333 0.005
0.122403 0.375 0.005
0.122351 0.416667 0.005
0.122299 0.458333 0.005
0.122247 0.5 0.005
0.122195 0.541667 0.005
0.122143 0.583333 0.005
0.122091 0.625 0.005
0.122039 0.666667 0.005
0.121986 0.708333 0.005
0.121934 0.75 0.005
0.121882 0.791667 0.005
0.12183 0.833333 0.005
0.121778 0.875 0.005
0.121726 0.916667 0.005
0.121674 0.958333 0.005
0.121622 1.0 0.005
0.16383 0.0 0.005
0.16376 0.0416667 0.005
0.163691 0.0833333 0.005
0.163621 0.125 0.005
0.163552 0.166667 0.005
0.163482 0.208333 0.005
0.163413 0.25 0.005
0.163343 0.291667 0.005
0.163274 0.333333 0.005
0.163204 0.375 0.005
0.163135 0.416667 0.005
0.163066 0.458333 0.005
0.162996 0.5 0.005
0.162927 0.541667 0.005
0.162857 0.583333 0.005
0.162788 0.625 0.005
0.162718 0.666667 0.005
0.162649 0.708333 0.005
0.162579 0.75 0.005
0.16251 0.791667 0.005
0.16244 0.833333 0.005
0.162371 0.875 0.005
0.162301 0.916667 0.005
0.162232 0.958333 0.005
0.162162 1.0 0.005
0.204787 0.0 0.005
0.2047 0.0416667 0.005
0.204614 0.0833333 0.005
0.204527 0.125 0.005
0.20444 0.166667 0.005
0.204353 0.208333 0.005
0.204266 0.25 0.005
0.204179 0.291667 0.005
0.204092 0.333333 0.005
0.204006 0.375 0.005
0.203919 0.416667 0.005
0.203832 0.458333 0.005
0.203745 0.5 0.005
0.203658 0.541667 0.005
0.203571 0.583333 0.005
0.203484 0.625 0.005
0.203398 0.666667 0.005
0.203311 0.708333 0.005
0.203224 0.75 0.005
0.203137 0.791667 0.005
0.20305 0.833333 0.005
0.202963 0.875 0.005
0.202876 0.916667 0.005
0.20279 0.958333 0.005
0.202703 1.0 0.005
0.245745 0.0 0.005
0.245641 0.0416667 0.005
0.245536 0.0833333 0.005
0.245432 0.125 0.005
0.245328 0.166667 0.005
0.245224 0.208333 0.005
0.245119 0.25 0.005
0.245015 0.291667 0.005
0.244911 0.333333 0.005
0.244807 0.375 0.005
0.244703 0.416667 0.005
0.244598 0.458333 0.005
0.244494 0.5 0.005
0.24439 0.541667 0.005
0.244286 0.583333 0.005
0.244181 0.625 0.005
0.244077 0.666667 0.005
0.243973 0.708333 0.005
0.243869 0.75 0.005
0.243764 0.791667 0.005
0.24366 0.833333 0.005
0.243556 0.875 0.005
0.243452 0.916667 0.005
0.243347 0.958333 0.005
0.243243 1.0 0.005
0.286702 0.0 0.005
0.286581 0.0416667 0.005
0.286459 0.0833333 0.005
0.286337 0.125 0.005
0.286216 0.166667 0.005
0.286094 0.208333 0.005
0.285973 0.25 0.005
0.285851 0.291667 0.005
0.285729 0.333333 0.005
0.285608 0.375 0.005
0.285486 0.416667 0.005
0.285365 0.458333 0.005
0.285243 0.5 0.005
0.285121 0.541667 0.005
0.285 0.583333 0.005
0.284878 0.625 0.005
0.284757 0.666667 0.005
0.284635 0.708333 0.005
0.284513 0.75 0.005
0.284392 0.791667 0.005
0.28427 0.833333 0.005
0.284149 0.875 0.005
0.284027 0.916667 0.005
0.283905 0.958333 0.005
0.283784 1.0 0.005
0.32766 0.0 0.005
0.327521 0.0416667 0.005
0.327382 0.0833333 0.005
0.327243 0.125 0.005
0.327104 0.166667 0.005
0.326965 0.208333 0.005
0.326826 0.25 0.005
0.326687 0.291667 0.005
0.326548 0.333333 0.005
0.326409 0.375 0.005
0.32627 0.416667 0.005
0.326131 0.458333 0.005
0.325992 0.5 0.005
0.325853 0.541667 0.005
0.325714 0.583333 0.005
0.325575 0.625 0.005
0.325436 0.666667 0.005
0.325297 0.708333 0.005
0.325158 0.75 0.005
0.325019 0.791667 0.005
0.32488 0.833333 0.005
0.324741 0.875 0.005
0.324602 0.916667 0.005
0.324463 0.958333 0.005
0.324324 1.0 0.005
0.368617 0.0 0.005
0.368461 0.0416667 0.005
0.368305 0.0833333 0.005
0.368148 0.125 0.005
0.367992 0.166667 0.005
0.367835 0.208333 0.005
0.367679 0.25 0.005
0.367523 0.291667 0.005
0.367366 0.333333 0.005
0.36721 0.375 0.005
0.367054 0.416667 0.005
0.366897 0.458333 0.005
0.366741 0.5 0.005
0.366585 0.541667 0.005
0.366428 0.583333 0.005
0.366272 0.625 0.005
0.366116 0.666667 0.005
0.365959 0.708333 0.005
0.365803 0.75 0.005
0.365647 0.791667 0.005
0.36549 0.833333 0.005
0.365334 0.875 0.005
0.365178 0.916667 0.005
0.365021 0.958333 0.005
0.364865 1.0 0.005
0.409575 0.0 0.005
0.409401 0.0416667 0.005
0.409227 0.0833333 0.005
0.409054 0.125 0.005
0.40888 0.166667 0.005
0.408706 0.208333 0.005
0.408532 0.25 0.005
0.408359 0.291667 0.005
0.408185 0.333333 0.005
0.408011 0.375 0.005
0.407838 0.416667 0.005
0.407664 0.458333 0.005
0.40749 0.5 0.005
0.407316 0.541667 0.005
0.407143 0.583333 0.005
0.406969 0.625 0.005
0.406795 0.666667 0.005
0.406621 0.708333 0.005
0.406448 0.75 0.005
0.406274 0.791667 0.005
0.4061 0.833333 0.005
0.405927 0.875 0.005
0.405753 0.916667 0.005
0.405579 0.958333 0.005
0.405405 1.0 0.005
0.450532 0.0 0.005
0.450341 0.0416667 0.005
0.45015 0.0833333 0.005
0.449959 0.125 0.005
0.449768 0.166667 0.005
0.449577 0.208333 0.005
0.449386 0.25 0.005
0.449195 0.291667 0.005
0.449003 0.333333 0.005
0.448812 0.375 0.005
0.448621 0.416667 0.005
0.44843 0.458333 0.005
0.448239 0.5 0.005
0.448048 0.541667 0.005
0.447857 0.583333 0.005
0.447666 0.625 0.005
0.447475 0.666667 0.005
0.447284 0.708333 0.005
0.447093 0.75 0.005
0.446901 0.791667 0.005
0.44671 0.833333 0.005
0.446519 0.875 0.005
0.446328 0.916667 0.005
0.446137 0.958333 0.005
0.445946 1.0 0.005
0.49149 0.0 0.005
0.491281 0.0416667 0.005
0.491073 0.0833333 0.005
0.490864 0.125 0.005
0.490656 0.166667 0.005
0.490447 0.208333 0.005
0.490239 0.25 0.005
0.49003 0.291667 0.005
0.489822 0.333333 0.005
0.489613 0.375 0.005
0.489405 0.416667 0.005
0.489197 0.458333 0.005
0.488988 0.5 0.005
0.48878 0.541667 0.005
0.488571 0.583333 0.005
0.488363 0.625 0.005
0.488154 0.666667 0.005
0.487946 0.708333 0.005
0.487737 0.75 0.005
0.487529 0.791667 0.005
0.48732 0.833333 0.005
0.487112 0.875 0.005
0.486903 0.916667 0.005
0.486695 0.958333 0.005
0.486486 1.0 0.005
0.531954 0.00563435 0.005
0.531749 0.0470663 0.005
0.531544 0.0884982 0.005
0.531338 0.12993 0.005
0.531133 0.171362 0.005
0.530928 0.212794 0.005
0.530722 0.254226 0.005
0.530517 0.295658 0.005
0.530312 0.33709 0.005
0.530107 0.378521 0.005
0.529901 0.419953 0.005
0.529696 0.461385 0.005
0.529491 0.502817 0.005
0.529285 0.544249 0.005
0.52908 0.585681 0.005
0.528875 0.627113 0.005
0.528669 0.668545 0.005
0.528464 0.709977 0.005
0.528259 0.751409 0.005
0.528054 0.79284 0.005
0.527848 0.834272 0.005
0.527643 0.875704 0.005
0.527438 0.917136 0.005
0.527232 0.958568 0.005
0.527027 1.0 0.005
0.572289 0.0127465 0.005
0.572093 0.0538821 0.005
0.571896 0.0950177 0.005
0.571699 0.136153 0.005
0.571502 0.177289 0.005
0.571306 0.218424 0.005
0.571109 0.25956 0.005
0.570912 0.300695 0.005
0.570715 0.341831 0.005
0.570519 0.382967 0.005
0.570322 0.424102 0.005
0.570125 0.465238 0.005
0.569928 0.506373 0.005
0.569732 0.547509 0.005
0.569535 0.588644 0.005
0.569338 0.62978 0.005
0.569142 0.670916 0.005
0.568945 0.712051 0.005
0.568748 0.753187 0.005
0.568551 0.794322 0.005
0.568355 0.835458 0.005
0.568158 0.876593 0.005
0.567961 0.917729 0.005
0.567764 0.958864 0.005
0.567568 1.0 0.005
0.612625 0.0198587 0.005
0.612436 0.0606979 0.005
0.612248 0.101537 0.005
0.61206 0.142376 0.005
0.611872 0.183216 0.005
0.611684 0.224055 0.005
0.611496 0.264894 0.005
0.611307 0.305733 0.005
0.611119 0.346572 0.005
0.610931 0.387412 0.005
0.610743 0.428251 0.005
0.610555 0.46909 0.005
0.610366 0.509929 0.005
0.610178 0.550769 0.005
0.60999 0.591608 0.005
0.609802 0.632447 0.005
0.609614 0.673286 0.005
0.609425 0.714125 0.005
0.609237 0.754965 0.005
0.609049 0.795804 0.005
0.608861 0.836643 0.005
0.608673 0.877482 0.005
0.608484 0.918322 0.005
0.608296 0.959161 0.005
0.608108 1.0 0.005
0.65296 0.0269708 0.005
0.65278 0.0675137 0.005
0.652601 0.108057 0.005
0.652421 0.148599 0.005
0.652241 0.189142 0.005
0.652062 0.229685 0.005
0.651882 0.270228 0.005
0.651702 0.310771 0.005
0.651523 0.351314 0.005
0.651343 0.391857 0.005
0.651164 0.4324 0.005
0.650984 0.472943 0.005
0.650804 0.513485 0.005
0.650625 0.554028 0.005
0.650445 0.594571 0.005
0.650265 0.635114 0.005
0.650086 0.675657 0.005
0.649906 0.7162 0.005
0.649726 0.756743 0.005
0.649547 0.797286 0.005
0.649367 0.837828 0.005
0.649188 0.878371 0.005
0.649008 0.918914 0.005
0.648828 0.959457 0.005
0.648649 1.0 0.005
0.693295 0.034083 0.005
0.693124 0.0743295 0.005
0.692953 0.114576 0.005
0.692782 0.154823 0.005
0.692611 0.195069 0.005
0.69244 0.235316 0.005
0.692269 0.275562 0.005
0.692098 0.315809 0.005
0.691926 0.356055 0.005
0.691755 0.396302 0.005
0.691584 0.436548 0.005
[...]
CELL_DATA 888
SCALARS P float 1
LOOKUP_TABLE default
100130.87160212011
100130.53392757247
100184.9445449678
100128.21937002541
100184.81723311043
100264.45499762053
100124.24852357584
100181.59737298374
100264.70911614137
100381.62595692123
100118.92519249511
100175.86339410566
100260.02122119072
100382.53125762522
100554.80007825515
100112.55533769158
100168.13000651561
100251.40171075844
100375.40173150942
100556.7927524411
100811.85086645276
100105.44060808547
100158.88774200519
100239.74564707407
100362.00844790763
100545.48711707613
100815.57965076217
101196.0097349421
100097.86515100964
100148.60116564533
100225.8807092395
100343.93831495995
100524.06792733443
100796.86574738628
101202.16104586018
101776.6529426695
100090.0836198529
100137.69475217725
100210.56123469946
100322.62624402826
100495.41273466336
100761.66547670103
101169.63644352117
101784.7405712049
102671.83245447335
100082.31350722277
100126.53975401323
100194.45012913822
100299.33043066516
100462.05357200545
100715.3322713556
101110.14712864235
101724.78702988394
102674.59672197413
104102.69058303747
100074.73210852557
100115.44656773286
100178.10532780427
100275.10724934164
100426.11037939206
100662.37919825644
101033.88532913718
101621.13948197474
102555.93426912949
104062.32514629615
106548.08908183879
100067.47721802772
100104.66323655364
100161.97664373287
100250.8059358846
100389.27294148113
100606.37279966989
100948.90199834747
101493.49397864671
102369.21017842955
103807.59265171956
106292.95904075685
111261.5335331721
100060.650544796
100094.37883715845
100146.41044465515
100227.07714975196
100352.82185808943
100549.97660178016
100861.09736590556
101355.99077542438
102152.26801974235
103459.31700186933
105699.4897151288
110001.11623880935
122319.85601766505
100054.32255272332
100084.72991998479
100131.66046954294
100204.39703667739
100317.68303910566
100495.07519415978
100774.52880509895
101217.98373861864
101928.72998517325
103086.20225622738
105030.12563560202
108532.19789040323
116076.1824398837
132555.563376568
100048.5379638167
100075.80855860574
100117.90167024365
100183.0941632081
100284.48656430138
100442.92624997497
100691.82376492077
101085.26007557238
101712.17855056349
102722.97266499103
104386.02719363266
107234.14855483104
112525.33229687772
122859.07559570413
140554.0819490705
100043.32134544308
100067.67074401732
100105.24467800968
100163.37788589664
100253.63095022521
100394.30957480609
100614.55966129173
100961.12907370861
101509.80658634739
102385.59810063976
103801.11773950706
106138.6631394581
110140.46859617122
117270.29048194508
129334.29928866663
147018.42259652805
100038.68230887536
100060.34475467223
100093.7497729764
100145.36543661592
100225.33905792619
100349.65107894024
100543.57141985944
100847.25647304028
101324.9340346147
102080.30302957144
103283.2969514714
105218.9719123701
108376.82222273348
113659.75976540102
122288.75225044454
135214.02933040808
152323.89211828247
100034.62024798752
100053.83851857764
100083.43973340331
100129.10460447783
100199.70319589581
100309.12680059928
100479.19190846129
100744.25844173016
101158.61513127892
101808.3615437031
102830.63378386367
104444.74262796983
106999.4595052264
111102.54997326394
117585.95348804277
127254.7434396951
140448.95272606087
156699.7536810158
100031.12862943577
100048.14633896237
100074.31083522832
100114.59446257405
100176.72550067687
100272.74055585185
100421.4197142702
100652.09441292183
101010.61218531645
101568.60037053897
102437.71049980636
103790.6930488629
105889.44081773372
109172.55199797881
114233.54412639257
121700.30392410199
131992.68329744993
145062.063934081
160304.24631079414
100028.19877816566
100043.25484555477
100066.34225164757
100101.8010269902
100156.34666429888
100240.38447390149
100370.04698594537
100570.3421296639
100879.98568276787
101358.7199869583
102098.12880699152
103236.67895738546
104978.10259537453
107655.06122211486
111712.36922777013
117641.51189058938
125836.20882760227
136412.1612136805
149096.1427854222
163256.6200905717
100025.82361700236
100039.14831902216
100059.50464768767
100090.67153790352
100138.4715773683
100211.88283575077
100324.74527285773
100498.36744371582
100765.45898799627
101175.98068266555
101805.52304413763
102766.52545306986
104221.29566663699
106430.86676719686
109742.05907289805
114549.34947133392
121203.18955447963
129876.6463882907
140471.39631288368
152598.57035552294
165651.64712983012
100024.00185856869
100035.81403125548
100053.7673602862
100081.1449326789
100122.98580594968
100187.02542818928
100285.1260926881
100435.43846022653
100665.62502311115
101017.56737606045
101553.98866286602
102367.08599404577
103588.34730677145
105427.1756626138
108161.72318491245
112116.37797727676
117601.72671604631
124813.26726976395
133742.88252534834
144155.59023633366
155616.20808176187
167567.9818473206
100022.74356530425
100033.24863947235
100049.10608947233
100073.16288804513
100109.77271665423
100165.59207097901
100250.78192429057
100380.80372333876
100579.07268229724
100880.78406481261
101338.21618041827
102027.53731880311
103056.53774086859
104595.71473590413
106872.37573085712
110157.769475469
114728.19202361254
120787.99071496389
128387.48223330974
137384.37414420617
147465.63837185863
158194.0682371141
169072.97075748054
100022.07948661831
100031.46731652772
100045.51243985284
100066.67986294025
100098.72559628157
100147.37165647096
100221.31644336825
100333.73344918036
100504.46404774181
100763.14939273045
101153.52619163037
101738.89811532879
102608.39886355789
103902.30431427847
105808.51948612333
108556.30511813209
112391.57039135814
117519.747448235
124033.35933013751
131860.9598554441
140770.25684083696
150412.5295343853
160375.10100585816
170225.55946774178
100030.51956744234
100043.00789689735
100061.6770330638
100089.7628366838
100132.178666256
100196.3672490151
100293.55513700137
100440.57203936543
100662.43056369881
100995.8410963012
101493.67886011205
102230.1406550825
103321.44224041344
104924.17629067668
107233.16420122383
110466.6545736957
114825.35518818878
120431.58913345233
127273.22543677663
135185.54906010834
143883.3925176598
153012.445960106
162199.72287001475
171075.0294741872
100041.6682155444
100058.1825316375
100082.84586119393
100119.87202049703
100175.62561255158
100259.6741218036
100386.30525588452
100576.66479407609
100861.65332608113
101285.60972579967
101910.63113085924
102833.50499950277
104185.41246244968
106132.347128748
108867.15846080703
112581.06870049109
117415.35288050935
123406.65599515656
130453.52036084839
138326.61174253543
146717.05398324179
155285.57988866352
163705.39552320592
171667.36620750464
100056.30697252709
100078.0085868783
100110.3796260815
100158.85688249453
100231.5930178362
100340.7259122517
100504.15895173939
100747.96614412143
101109.45631965158
101640.81817733249
102422.99385866239
103566.25944841866
105212.23526852137
107530.47496016184
110699.42366223133
114869.70826986372
120115.44623213203
126393.01172730673
133530.86131897592
141260.7954720975
149272.00581627747
157253.81771658157
164928.2094302015
172038.36763144028
100075.40668818474
100103.73796449351
100145.93463978142
100208.93840733524
100303.06366183423
100443.48650936437
100652.25353130004
100960.84715101085
101413.28690565127
102077.47922599745
103046.3731096636
104440.87073578816
106409.306429789
109115.36958954645
112711.40054867323
117297.67717492081
122879.90934762647
129344.83313734735
136471.216256928
143973.74677061784
151554.719600682
158940.62478472805
165898.48959846064
172224.12371407906
100100.16041244012
100136.89223360406
100191.49939349008
100272.74223577745
100393.49356914332
100572.42416511384
100836.16390393008
101221.95222820256
101786.89982563452
102609.5306451275
103793.08082908682
105466.74364087227
107778.70847223324
110877.23830265625
114878.60940465664
119827.60269568006
125665.43172039374
132223.28811228165
139249.26492217465
146458.3115385196
153575.78058023483
160368.95749363082
166648.4624544794
172252.62182865935
100132.01677252834
100179.29805507613
100249.42817495357
100353.32308868453
100506.80934428351
100732.45211108841
101061.83015826935
101543.09138306121
102242.6683294557
103248.71584402958
104673.4033606431
106649.38506121172
109317.06322756899
112800.31500333079
117172.32717485535
122421.47533057739
128432.57088578107
134996.2979357443
141847.06310067102
148712.22976608877
155348.17590516855
161561.62884087794
167203.91633759756
172154.40574694864
100172.71428070008
100233.1195080645
100322.46829539092
100454.17395339427
100647.37904245657
100928.90471018986
101339.41780543346
101935.19881469174
102791.52284177659
104005.51470577292
105694.91340835576
107989.96870714544
111015.67996031436
114863.98477786081
119561.21023311176
125042.4034521196
131146.38465553653
137638.32586701243
144253.01213017234
150738.92698691692
156886.94577066053
162541.8512648933
167592.4372336727
171949.43537244157
100224.3132553504
100300.88788604028
100413.77890316292
100579.2208839593
100820.01913902946
101170.55377036106
101678.5581589824
102408.31336915852
103443.7300352072
104888.59660873472
106861.85750265146
109485.13611526627
112860.91261089162
117043.86776484325
122012.80893405384
127655.6216313107
133776.91603917422
140130.282831222
146460.93634424964
152544.41799743238
158208.0621450117
163332.28503887184
167837.61946537084
171667.19587711836
100289.22721116993
100385.52754509012
100526.94451881021
100732.85411781698
101032.34043334068
101465.89870604868
102088.4070336188
102972.22001299103
104208.36234988378
105904.14937883413
108174.79436069986
111127.01976385612
114834.95758087761
119313.0269808985
124494.9146106369
130229.65130083074
136299.40237079194
142457.35740384663
148468.5404965096
154138.5893491181
159329.35091088148
163954.8414629169
167964.18540474796
171326.7981344167
100370.25118673485
100490.37994810117
100666.01788043736
100921.74407915365
101291.87902545552
101823.24668095361
102578.12423817885
103636.00211071393
105092.78370677998
107055.50356741923
109630.41857422094
112903.62141056338
116916.62427569504
121643.1580541329
126976.62089883385
132736.12166958657
138693.94794759128
144611.4542325671
150278.0667385709
155532.1516679593
160268.4119060338
164430.73486337924
167995.44547097775
170956.84694746486
100470.59357972014
100619.25866370501
100836.93452250944
101152.61223636345
101606.16048201022
102251.08087855797
103156.51305518256
104407.54565452719
106102.14654127332
108342.79176595353
111221.54987360835
114799.18380190468
119082.27868105061
124005.62632262881
129429.11154115215
135151.77252470516
140944.58432443775
146586.37062692837
151893.81575618192
156737.3016763886
161043.48950921185
164782.8145912512
167957.16080858215
170588.1124510662
100593.93582394322
100777.56633130113
101045.761183188
101432.30164291766
101983.00403251009
102757.78456518849
103831.64615449695
105293.1818737146
107239.04385790306
109762.68795012544
112937.34740623103
116794.93737730371
121306.63888935476
126372.41548619959
131825.63635649596
137455.90114787818
143040.7609002998
148380.7140746989
153322.64399047344
157768.1613662953
161672.80383826766
165033.34700376645
167876.88073389136
170269.10790782378
100745.38739045917
100970.89857426196
101298.77674915678
101768.01596923776
102430.28829919925
103351.31194187247
104610.44391542564
106297.20806317125
108503.19075244076
111308.53055124152
114763.56515240297
118869.64107704976
123563.88806451707
128716.44515062323
134143.17168873697
139631.53293043788
144973.56035656866
149995.27197914163
154572.88808401345
158638.73040562877
162175.53022913303
165205.64621240724
167789.12547483188
170057.0754521952
100930.26913272124
101205.11021522054
101602.65855970146
102167.1349865026
102955.71567460598
104038.85004517328
105498.30763521002
107421.54431761881
109891.248152824
112970.21190437283
116683.12111692471
120999.98383345659
125827.65196227825
131012.6941399929
136360.91117607968
141665.70908326132
146738.50285499435
151432.4988962606
155653.52328877925
159362.87171419399
162569.1227049932
165321.59757662762
167727.6792446502
101154.1980527629
101486.46379747923
101964.32140779946
102637.0013937558
103566.46867644807
104826.45897500298
106498.7761956162
108665.48764651909
111396.72023609966
114734.56694701385
118676.42899418694
123162.4676047817
128072.72226640646
133237.80612893158
138460.9829887233
143547.6097189795
148331.92309987094
152695.0497338343
156572.57633900296
159951.91459085725
162865.07414036992
165392.931052655
101423.19506529793
101821.5111104722
102390.74713177729
103184.66514785109
104268.91022781236
105718.69000358196
107613.09098860461
110025.51030811387
113010.04774975858
116585.66045100677
120722.07110551061
125331.97214012977
130274.24844169177
135370.4674605086
140427.49091092052
145268.00569108475
149751.01298752622
153786.09647711262
157334.61711835003
160407.0529443578
163053.43397378028
101743.58248507614
102216.91825224822
102888.76012851363
103816.57071492894
105068.26093919741
106718.24836809715
108840.03820144986
111495.05431113509
114718.36676216425
118504.63253256169
122796.60490365658
127483.23067031306
132408.4031669047
137390.24665608318
142245.74908633664
146818.08908295617
150991.55569296927
154701.8754212731
157931.54541843178
160698.66396293492
102121.84139781135
102679.28111808382
103464.75822508388
104538.26696636743
105968.21055238768
107825.71044928324
110175.68482095718
113064.65805501006
116506.51504019972
120470.84895435924
124876.07353771961
129591.52683350981
134451.8669987789
139277.68018624285
143901.20652841046
148186.47456635654
152043.07143059242
155424.2440257786
158314.418608472
102564.40599926935
103214.8928243912
104124.42832555668
105354.09461063684
106970.59686262543
109039.16232473317
111613.18263569196
114721.49974729725
118356.04324761531
122461.72976040363
126934.93856279098
131631.27388966145
136381.0995026579
141013.01292974703
145376.1157153837
149355.3675509197
152876.4370457217
155887.92844607748
103077.47023821012
103829.4614136574
104872.46283005762
106266.7780001607
108075.12343967882
110354.01952785958
113142.5223243084
116450.14635410601
120245.77602398969
124451.62486983789
128946.55021679452
133575.72264124555
138171.03512424877
142572.1938086494
146644.7063477163
150286.17098235228
153411.2350651486
103666.72643805484
104527.82394742078
105712.1564244151
107277.1196506514
109278.818410386
111762.5081614017
114750.6071567572
118231.70294276942
122152.13956910513
126414.26424555175
130881.82105119909
135395.60306403527
139791.99417924913
143921.59443183738
147657.94373194856
150882.2169723743
104337.05716540667
105313.63315789305
106645.12205286029
108383.69152234482
110576.25750505964
113253.94736893204
116420.8466797249
120043.97168341321
124048.34144828167
128318.47563357692
132707.84950228597
137055.86861664458
141203.3517415879
145003.14089995745
148306.38892641742
105092.24320258558
106188.96898474885
107670.92690916176
109582.37098704808
111958.41498409263
114813.8169630041
118132.97249329342
121860.98598317802
125903.42310655094
130129.84688140913
134386.36562903287
138509.73959366602
142338.15016344254
145694.75225826798
105934.61895974063
107154.00342531661
108786.44837687006
110865.78420504033
113412.71009239236
116423.69479901763
119862.06488295505
123652.0972469123
127681.27693157872
131805.85370063692
135864.1827796385
139683.1326534692
143063.51182065133
106864.62855532908
108206.51259980301
109985.9386602543
112223.44303465994
114922.68409736695
118060.42711648253
121578.28153236788
125380.46412696577
129336.57717761923
133289.74249695297
137060.51119275013
140432.78192201568
107880.5235445516
109341.45174587493
111259.83750838171
113640.05903211802
116466.79890131096
119695.24226314948
123244.99047197748
126999.63435593041
130809.5922094318
134494.63234152604
137825.29605898084
108977.72289313139
110550.44009006249
112594.64545344881
115095.93850425811
118017.65422800019
121291.91736193809
124815.08026697754
128447.42859164876
132010.0527633537
135265.50066058058
110148.39357092687
111820.96129614617
113971.84098738003
116564.98073853133
119539.99213170155
122803.48430071214
126225.09517966276
129630.48235830871
132777.8698012433
111380.59708482552
113135.53756458785
115366.69984698009
118013.04317228685
120987.259649925
124166.3028146918
127380.58396211846
130387.8066484963
112657.42853133506
114470.47619795024
116746.1498314084
119394.96037127964
122296.49544128242
125285.78775795316
128120.67917507941
113955.90558357522
115793.98790563524
118066.5649729231
120648.58454692335
123374.5705624959
126003.1826806059
115244.94810271499
117063.18257160204
119266.82882351607
121682.17706438126
124065.44638757917
116482.41851099116
118218.71470883027
120257.76993588459
122344.93305379404
117609.91977403403
119173.48095096867
120892.7796403024
118541.66181825522
119784.93496480925
119138.26258834689
SCALARS T float 1
LOOKUP_TABLE default
300.1129587145857
300.1126491464205
300.1600683754502
300.11062797519935
300.1599172504378
300.22973089987687
300.1071727157349
300.1570804226234
300.2298587824191
300.333141801806
300.1025476882913
300.15205965482653
300.2256773773309
300.3337222813116
300.4874134241865
300.09701950435186
300.1453045805737
300.21806671168616
300.3272604278324
300.4886915052578
300.7190997680268
300.09085087531525
300.1372448698017
300.20781320531023
300.31530813726533
300.47824050313545
300.7213393443812
301.07028475860784
300.08428886470966
300.12828728118546
300.1956465408981
300.29927029307436
300.45887412130253
300.7036397429925
301.0734001086198
301.60971625553094
300.0775543886046
300.1188026607484
300.18223135434744
300.2804217411378
300.43316352011885
300.671318339652
301.04188218992243
301.61170884672606
302.45501592501967
300.07083561099137
300.1091143118928
300.1681499558555
300.2598789787422
300.4033782802265
300.6292092686096
300.98631223417584
301.55231227980437
302.44590391569045
303.8221741761308
300.0642854328244
300.09949147450794
300.1538902059502
300.23857537744794
300.3714141335671
300.58139642821914
300.91599513321313
301.45379091434324
302.32665452899283
303.760769947145
306.1521332956396
300.05802224567844
300.0901483038284
300.13984316743694
300.2172564306305
300.33877281153775
300.5310939096265
300.8382841251658
301.33430337647917
302.14650264617654
303.504935877586
305.87379350357054
310.482715676372
300.0521330363445
300.08124714415607
300.12630788439907
300.19648853083135
300.3065818605256
300.4806806576729
300.75853268450635
301.2068643576122
301.9405626950248
303.16623229382526
305.29092867136006
309.31008056392807
319.6523365394352
300.04667769871486
300.07290443014926
300.1135015594225
300.1766817921123
300.2756464255486
300.43181718716005
300.680374341116
301.07999726594437
301.7306731453182
302.808465965263
304.64292325320395
307.93591406216814
314.6524041171661
327.62213484243347
300.0416938873806
300.06519792134634
300.10157226620265
300.15811528861457
300.2465051782688
300.3855902452984
300.60611358215255
300.9588719152323
301.5292042788749
302.4637681157617
304.0238504141928
306.7064792398663
311.5622809775808
320.35839081019634
333.6034892764195
300.0372019112135
300.0581741639831
300.0906120400081
300.1409632018956
300.2194903834586
300.342653984932
300.53708845259206
300.84634167492476
301.3424903829951
302.1465650977622
303.46557606456736
305.66259459665855
309.3871254283596
315.74305516800075
325.58907861174225
338.3078412583537
300.03320926227366
300.05185586289673
300.0806693694967
300.1253194370845
300.19477962083374
300.303346638645
300.47396332948495
300.743742839505
301.1732331434055
301.8620383845148
302.97511890701054
304.78605996285614
307.7390212455939
312.5706768657765
320.0235340391355
330.1762084618743
342.09007598276827
300.02971472518715
300.04624832289653
300.0717605701237
300.1112180191389
300.1724370555062
300.26778709487775
300.41695573073866
300.6514618788119
301.0220462230565
301.61071044469503
302.54987329896517
304.0509418946415
306.43842958320346
310.23851986202044
316.0388007292979
324.12412845628756
334.14043305892136
345.1583910946517
300.0267120824157
300.04134529584024
300.06387943568444
300.0986514898793