# vtk DataFile Version 2.0
JuliaCFD
ASCII
DATASET UNSTRUCTURED_GRID

POINTS 1900 float
0.0 0.0 0.005
0.0 0.0416667 0.005
0.0 0.0833333 0.005
0.0 0.125 0.005
0.0 0.166667 0.005
0.0 0.208333 0.005
0.0 0.25 0.005
0.0 0.291667 0.005
0.0 0.333333 0.005
0.0 0.375 0.005
0.0 0.416667 0.005
0.0 0.458333 0.005
0.0 0.5 0.005
0.0 0.541667 0.005
0.0 0.583333 0.005
0.0 0.625 0.005
0.0 0.666667 0.005
0.0 0.708333 0.005
0.0 0.75 0.005
0.0 0.791667 0.005
0.0 0.833333 0.005
0.0 0.875 0.005
0.0 0.916667 0.005
0.0 0.958333 0.005
0.0 1.0 0.005
0.0409575 0.0 0.005
0.0409401 0.0416667 0.005
0.0409227 0.0833333 0.005
0.0409054 0.125 0.005
0.040888 0.166667 0.005
0.0408706 0.208333 0.005
0.0408532 0.25 0.005
0.0408359 0.291667 0.005
0.0408185 0.333333 0.005
0.0408011 0.375 0.005
0.0407838 0.416667 0.005
0.0407664 0.458333 0.005
0.040749 0.5 0.005
0.0407316 0.541667 0.005
0.0407143 0.583333 0.005
0.0406969 0.625 0.005
0.0406795 0.666667 0.005
0.0406621 0.708333 0.005
0.0406448 0.75 0.005
0.0406274 0.791667 0.005
0.04061 0.833333 0.005
0.0405927 0.875 0.005
0.0405753 0.916667 0.005
0.0405579 0.958333 0.005
0.0405405 1.0 0.005
0.0819149 0.0 0.005
0.0818802 0.0416667 0.005
0.0818455 0.0833333 0.005
0.0818107 0.125 0.005
0.081776 0.166667 0.005
0.0817412 0.208333 0.005
0.0817065 0.25 0.005
0.0816717 0.291667 0.005
0.081637 0.333333 0.005
0.0816022 0.375 0.005
0.0815675 0.416667 0.005
0.0815328 0.458333 0.005
0.081498 0.5 0.005
0.0814633 0.541667 0.005
0.0814285 0.583333 0.005
0.0813938 0.625 0.005
0.081359 0.666667 0.005
0.0813243 0.708333 0.005
0.0812895 0.75 0.005
0.0812548 0.791667 0.005
0.0812201 0.833333 0.005
0.0811853 0.875 0.005
0.0811506 0.916667 0.005
0.0811158 0.958333 0.005
0.0810811 1.0 0.005
0.122872 0.0 0.005
0.12282 0.0416667 0.005
0.122768 0.0833333 0.005
0.122716 0.125 0.005
0.122664 0.166667 0.005
0.122612 0.208333 0.005
0.12256 0.25 0.005
0.122508 0.291667 0.005
0.122455 0.333333 0.005
0.122403 0.375 0.005
0.122351 0.416667 0.005
0.122299 0.458333 0.005
0.122247 0.5 0.005
0.122195 0.541667 0.005
0.122143 0.583333 0.005
0.122091 0.625 0.005
0.122039 0.666667 0.005
0.121986 0.708333 0.005
0.121934 0.75 0.005
0.121882 0.791667 0.005
0.12183 0.833333 0.005
0.121778 0.875 0.005
0.121726 0.916667 0.005
0.121674 0.958333 0.005
0.121622 1.0 0.005
0.16383 0.0 0.005
0.16376 0.0416667 0.005
0.163691 0.0833333 0.005
0.163621 0.125 0.005
0.163552 0.166667 0.005
0.163482 0.208333 0.005
0.163413 0.25 0.005
0.163343 0.291667 0.005
0.163274 0.333333 0.005
0.163204 0.375 0.005
0.163135 0.416667 0.005
0.163066 0.458333 0.005
0.162996 0.5 0.005
0.162927 0.541667 0.005
0.162857 0.583333 0.005
0.162788 0.625 0.005
0.162718 0.666667 0.005
0.162649 0.708333 0.005
0.162579 0.75 0.005
0.16251 0.791667 0.005
0.16244 0.833333 0.005
0.162371 0.875 0.005
0.162301 0.916667 0.005
0.162232 0.958333 0.005
0.162162 1.0 0.005
0.204787 0.0 0.005
0.2047 0.0416667 0.005
0.204614 0.0833333 0.005
0.204527 0.125 0.005
0.20444 0.166667 0.005
0.204353 0.208333 0.005
0.204266 0.25 0.005
0.204179 0.291667 0.005
0.204092 0.333333 0.005
0.204006 0.375 0.005
0.203919 0.416667 0.005
0.203832 0.458333 0.005
0.203745 0.5 0.005
0.203658 0.541667 0.005
0.203571 0.583333 0.005
0.203484 0.625 0.005
0.203398 0.666667 0.005
0.203311 0.708333 0.005
0.203224 0.75 0.005
0.203137 0.791667 0.005
0.20305 0.833333 0.005
0.202963 0.875 0.005
0.202876 0.916667 0.005
0.20279 0.958333 0.005
0.202703 1.0 0.005
0.245745 0.0 0.005
0.245641 0.0416667 0.005
0.245536 0.0833333 0.005
0.245432 0.125 0.005
0.245328 0.166667 0.005
0.245224 0.208333 0.005
0.245119 0.25 0.005
0.245015 0.291667 0.005
0.244911 0.333333 0.005
0.244807 0.375 0.005
0.244703 0.416667 0.005
0.244598 0.458333 0.005
0.244494 0.5 0.005
0.24439 0.541667 0.005
0.244286 0.583333 0.005
0.244181 0.625 0.005
0.244077 0.666667 0.005
0.243973 0.708333 0.005
0.243869 0.75 0.005
0.243764 0.791667 0.005
0.24366 0.833333 0.005
0.243556 0.875 0.005
0.243452 0.916667 0.005
0.243347 0.958333 0.005
0.243243 1.0 0.005
0.286702 0.0 0.005
0.286581 0.0416667 0.005
0.286459 0.0833333 0.005
0.286337 0.125 0.005
0.286216 0.166667 0.005
0.286094 0.208333 0.005
0.285973 0.25 0.005
0.285851 0.291667 0.005
0.285729 0.333333 0.005
0.285608 0.375 0.005
0.285486 0.416667 0.005
0.285365 0.458333 0.005
0.285243 0.5 0.005
0.285121 0.541667 0.005
0.285 0.583333 0.005
0.284878 0.625 0.005
0.284757 0.666667 0.005
0.284635 0.708333 0.005
0.284513 0.75 0.005
0.284392 0.791667 0.005
0.28427 0.833333 0.005
0.284149 0.875 0.005
0.284027 0.916667 0.005
0.283905 0.958333 0.005
0.283784 1.0 0.005
0.32766 0.0 0.005
0.327521 0.0416667 0.005
0.327382 0.0833333 0.005
0.327243 0.125 0.005
0.327104 0.166667 0.005
0.326965 0.208333 0.005
0.326826 0.25 0.005
0.326687 0.291667 0.005
0.326548 0.333333 0.005
0.326409 0.375 0.005
0.32627 0.416667 0.005
0.326131 0.458333 0.005
0.325992 0.5 0.005
0.325853 0.541667 0.005
0.325714 0.583333 0.005
0.325575 0.625 0.005
0.325436 0.666667 0.005
0.325297 0.708333 0.005
0.325158 0.75 0.005
0.325019 0.791667 0.005
0.32488 0.833333 0.005
0.324741 0.875 0.005
0.324602 0.916667 0.005
0.324463 0.958333 0.005
0.324324 1.0 0.005
0.368617 0.0 0.005
0.368461 0.0416667 0.005
0.368305 0.0833333 0.005
0.368148 0.125 0.005
0.367992 0.166667 0.005
0.367835 0.208333 0.005
0.367679 0.25 0.005
0.367523 0.291667 0.005
0.367366 0.333333 0.005
0.36721 0.375 0.005
0.367054 0.416667 0.005
0.366897 0.458333 0.005
0.366741 0.5 0.005
0.366585 0.541667 0.005
0.366428 0.583333 0.005
0.366272 0.625 0.005
0.366116 0.666667 0.005
0.365959 0.708333 0.005
0.365803 0.75 0.005
0.365647 0.791667 0.005
0.36549 0.833333 0.005
0.365334 0.875 0.005
0.365178 0.916667 0.005
0.365021 0.958333 0.005
0.364865 1.0 0.005
0.409575 0.0 0.005
0.409401 0.0416667 0.005
0.409227 0.0833333 0.005
0.409054 0.125 0.005
0.40888 0.166667 0.005
0.408706 0.208333 0.005
0.408532 0.25 0.005
0.408359 0.291667 0.005
0.408185 0.333333 0.005
0.408011 0.375 0.005
0.407838 0.416667 0.005
0.407664 0.458333 0.005
0.40749 0.5 0.005
0.407316 0.541667 0.005
0.407143 0.583333 0.005
0.406969 0.625 0.005
0.406795 0.666667 0.005
0.406621 0.708333 0.005
0.406448 0.75 0.005
0.406274 0.791667 0.005
0.4061 0.833333 0.005
0.405927 0.875 0.005
0.405753 0.916667 0.005
0.405579 0.958333 0.005
0.405405 1.0 0.005
0.450532 0.0 0.005
0.450341 0.0416667 0.005
0.45015 0.0833333 0.005
0.449959 0.125 0.005
0.449768 0.166667 0.005
0.449577 0.208333 0.005
0.449386 0.25 0.005
0.449195 0.291667 0.005
0.449003 0.333333 0.005
0.448812 0.375 0.005
0.448621 0.416667 0.005
0.44843 0.458333 0.005
0.448239 0.5 0.005
0.448048 0.541667 0.005
0.447857 0.583333 0.005
0.447666 0.625 0.005
0.447475 0.666667 0.005
0.447284 0.708333 0.005
0.447093 0.75 0.005
0.446901 0.791667 0.005
0.44671 0.833333 0.005
0.446519 0.875 0.005
0.446328 0.916667 0.005
0.446137 0.958333 0.005
0.445946 1.0 0.005
0.49149 0.0 0.005
0.491281 0.0416667 0.005
0.491073 0.0833333 0.005
0.490864 0.125 0.005
0.490656 0.166667 0.005
0.490447 0.208333 0.005
0.490239 0.25 0.005
0.49003 0.291667 0.005
0.489822 0.333333 0.005
0.489613 0.375 0.005
0.489405 0.416667 0.005
0.489197 0.458333 0.005
0.488988 0.5 0.005
0.48878 0.541667 0.005
0.488571 0.583333 0.005
0.488363 0.625 0.005
0.488154 0.666667 0.005
0.487946 0.708333 0.005
0.487737 0.75 0.005
0.487529 0.791667 0.005
0.48732 0.833333 0.005
0.487112 0.875 0.005
0.486903 0.916667 0.005
0.486695 0.958333 0.005
0.486486 1.0 0.005
0.531954 0.00563435 0.005
0.531749 0.0470663 0.005
0.531544 0.0884982 0.005
0.531338 0.12993 0.005
0.531133 0.171362 0.005
0.530928 0.212794 0.005
0.530722 0.254226 0.005
0.530517 0.295658 0.005
0.530312 0.33709 0.005
0.530107 0.378521 0.005
0.529901 0.419953 0.005
0.529696 0.461385 0.005
0.529491 0.502817 0.005
0.529285 0.544249 0.005
0.52908 0.585681 0.005
0.528875 0.627113 0.005
0.528669 0.668545 0.005
0.528464 0.709977 0.005
0.528259 0.751409 0.005
0.528054 0.79284 0.005
0.527848 0.834272 0.005
0.527643 0.875704 0.005
0.527438 0.917136 0.005
0.527232 0.958568 0.005
0.527027 1.0 0.005
0.572289 0.0127465 0.005
0.572093 0.0538821 0.005
0.571896 0.0950177 0.005
0.571699 0.136153 0.005
0.571502 0.177289 0.005
0.571306 0.218424 0.005
0.571109 0.25956 0.005
0.570912 0.300695 0.005
0.570715 0.341831 0.005
0.570519 0.382967 0.005
0.570322 0.424102 0.005
0.570125 0.465238 0.005
0.569928 0.506373 0.005
0.569732 0.547509 0.005
0.569535 0.588644 0.005
0.569338 0.62978 0.005
0.569142 0.670916 0.005
0.568945 0.712051 0.005
0.568748 0.753187 0.005
0.568551 0.794322 0.005
0.568355 0.835458 0.005
0.568158 0.876593 0.005
0.567961 0.917729 0.005
0.567764 0.958864 0.005
0.567568 1.0 0.005
0.612625 0.0198587 0.005
0.612436 0.0606979 0.005
0.612248 0.101537 0.005
0.61206 0.142376 0.005
0.611872 0.183216 0.005
0.611684 0.224055 0.005
0.611496 0.264894 0.005
0.611307 0.305733 0.005
0.611119 0.346572 0.005
0.610931 0.387412 0.005
0.610743 0.428251 0.005
0.610555 0.46909 0.005
0.610366 0.509929 0.005
0.610178 0.550769 0.005
0.60999 0.591608 0.005
0.609802 0.632447 0.005
0.609614 0.673286 0.005
0.609425 0.714125 0.005
0.609237 0.754965 0.005
0.609049 0.795804 0.005
0.608861 0.836643 0.005
0.608673 0.877482 0.005
0.608484 0.918322 0.005
0.608296 0.959161 0.005
0.608108 1.0 0.005
0.65296 0.0269708 0.005
0.65278 0.0675137 0.005
0.652601 0.108057 0.005
0.652421 0.148599 0.005
0.652241 0.189142 0.005
0.652062 0.229685 0.005
0.651882 0.270228 0.005
0.651702 0.310771 0.005
0.651523 0.351314 0.005
0.651343 0.391857 0.005
0.651164 0.4324 0.005
0.650984 0.472943 0.005
0.650804 0.513485 0.005
0.650625 0.554028 0.005
0.650445 0.594571 0.005
0.650265 0.635114 0.005
0.650086 0.675657 0.005
0.649906 0.7162 0.005
0.649726 0.756743 0.005
0.649547 0.797286 0.005
0.649367 0.837828 0.005
0.649188 0.878371 0.005
0.649008 0.918914 0.005
0.648828 0.959457 0.005
0.648649 1.0 0.005
0.693295 0.034083 0.005
0.693124 0.0743295 0.005
0.692953 0.114576 0.005
0.692782 0.154823 0.005
0.692611 0.195069 0.005
0.69244 0.235316 0.005
0.692269 0.275562 0.005
0.692098 0.315809 0.005
0.691926 0.356055 0.005
0.691755 0.396302 0.005
0.691584 0.436548 0.005
[...]
CELL_DATA 888
SCALARS P float 1
LOOKUP_TABLE default
100137.92494431537
100137.58242433608
100194.59833111131
100135.22607112216
100194.47159321996
100277.47749975605
100131.18143162884
100191.1971333106
100277.74194492343
100399.0025463614
100125.75626675235
100185.36224298633
100272.9831774482
100399.93397234601
100577.79368440379
100119.26025758393
100177.48825927108
100264.22595903376
100392.712135057
100579.83721712805
100842.078564266
100111.99878616232
100168.07151032444
100252.3760418273
100379.1303866993
100568.41007198003
100845.89657701709
101235.53907470727
100104.25978340948
100157.58208777563
100238.27016972064
100360.79247590971
100546.73113233167
100827.02005360308
101241.8389268597
101828.12176825923
100096.3016890279
100146.44989047508
100222.67100649186
100339.14744448171
100517.70431137265
100791.45796717786
101209.09137430968
101836.44876627115
102738.59850724397
100088.34571473465
100135.05149453478
100206.24936864706
100315.46613028768
100483.88369923831
100744.60540647972
101149.091035866
101776.17877447593
102741.73546825828
104189.02767851803
100080.57274489051
100123.70245838354
100189.5707463979
100290.81653610659
100447.4084918794
100691.01003851957
101072.0971594319
101671.79706929621
102622.60063628055
104149.2034602023
106659.50292351635
100073.12398310035
100112.65575962559
100173.09213234122
100266.05870218622
100409.98565675683
100634.26780828495
100986.21532165488
101543.10992973998
102434.80090685046
103893.71420964136
106405.00088125815
111405.53920923425
100066.10433736595
100102.10513274204
100157.16664783137
100241.85326299476
100372.9111903452
100577.06753804142
100897.39056225214
101404.34404792209
102216.36385864728
103543.82981902736
105810.20676331411
110145.09455871342
122508.95703173209
100059.58724342761
100092.19147521851
100142.05432205948
100218.68555646876
100337.12485609569
100521.3157057917
100809.71716060085
101264.92065963012
101991.04657884694
103168.55787802185
105138.39334747923
108673.63554784616
116260.31706436824
132794.80121532304
100053.62016331156
100083.01088265302
100127.93591853054
100196.89256353748
100303.26913346628
100468.28897417989
100725.85322956681
101130.67986662584
101772.5301864106
102802.82448351666
104491.1854802181
107371.82778697697
112704.37631059365
123090.01777628105
140846.36591402846
100048.2301777377
100074.6230389098
100114.92739820367
100176.69129273147
100271.75365043459
100418.7837159804
100647.40187910061
101004.97298633943
101568.08079366901
102462.7363134399
103902.78002994826
106271.91548826541
110313.85916501621
117493.80828137933
129617.58875995166
147367.35390516592
100043.42919669527
100067.05959984011
100103.09390123367
100158.20591773916
100242.8112187698
100373.24030407266
100575.2197126794
100889.49961324579
101381.0738933701
102154.61391097608
103381.24945398646
105347.42519463008
108544.09825989611
113875.68135603996
122563.28725757827
135554.88612957182
152733.39694200212
100039.21871674282
100060.33157059022
100092.46262280545
100141.49048661249
100216.54300579401
100331.84745597912
100509.65809645061
100784.90365315546
101212.60690851686
101879.80134122891
102924.7789934587
104568.21021500065
107160.3328741244
111310.54148090885
117851.36997148588
127586.56708356891
140852.50994122954
157173.91121860588
100035.59413792551
100054.43606052484
100083.03384472708
100126.54972371002
100192.95907316342
100294.62011589072
100450.73142112822
100691.16747689013
101062.47641238116
101637.17791928683
102528.03348648429
103909.1147296303
106043.77816705315
109372.36330328163
114489.37565434021
122022.1303546349
132387.89161816498
145533.37561003826
160847.2073291548
100032.54858306653
100049.3622720551
100074.79037349494
100113.35472786316
100172.00716775162
100261.46021559836
100398.24548302202
100607.88811044842
100929.77054202787
101424.48484267635
102184.67568176253
103350.08548441707
105125.89437873864
107846.57790553923
111958.25436806396
117952.48191197001
126221.27779745669
136876.72065055213
149640.18807142513
163872.54851905044
100030.07669107718
100045.09687780327
100067.70620508661
100101.85735204536
100153.59852569198
100232.20068580314
100351.88368463333
100534.4477268386
100813.23542887323
101239.01464197876
101888.38633038598
102875.01529002187
104362.62776322637
106614.1058014665
109977.80491385054
114848.80988036358
121576.6619428823
130331.67290607518
141011.10250895857
153220.20981443135
166344.66397552565
100028.17889892243
100041.62944737588
100061.75378221077
100092.000739377
100137.62440116364
100206.63900293244
100311.26791002405
100470.12836422326
100711.48293645833
101077.97819423064
101633.29719620702
102470.80921990288
103723.38106206866
105602.26427935134
108387.3040614618
112403.92042802344
117962.49048227977
125256.57514173494
134274.40557013755
144776.0357930256
156320.13343189715
168342.10711198053
100026.86715966756
100038.95899381167
100056.91182517479
100083.73052547476
100123.9733941312
100184.56190495683
100275.99977421922
100414.19067348908
100623.11791368108
100938.70079577653
101414.12766286194
102126.6840801896
103185.49190092257
104762.86914472024
107087.91350188653
110433.2224317226
115075.4811917195
121217.8824576757
128907.83345703356
137998.69131390724
148172.14534164552
158984.74746972413
169932.0596517015
100026.17459454878
100037.10338428551
100053.17512284555
100077.00507995453
100112.54373525694
100165.76464593636
100245.69114461222
100365.91542456092
100546.81613929423
100818.71890346025
101226.22170503256
101833.69024347424
102731.53688705627
104061.8122867354
106014.2558262423
108819.70519004432
112724.94394913947
117934.97076582549
124540.16793812363
132465.3394395958
141473.36940295724
151210.10684816423
161256.7154491981
171173.22902724324
100036.1157060037
100050.56895344147
100071.8098284086
100103.25882113108
100150.06779211332
100219.98718916687
100324.63962094249
100481.36246102476
100715.81472782716
101065.5208726254
101584.36351507173
102347.76197536019
103473.64590925531
105120.44929751445
107484.72163822937
110785.96163560434
115225.07716841705
120923.02016898498
127864.57821940549
135880.62609348705
144680.91103880588
153905.71257008403
163176.08523420108
172114.54905089547
100049.1743185061
100068.1781473521
100096.08565513922
100137.33655285249
100198.5865633803
100289.77743918884
100425.67617264352
100628.0385499563
100928.53379655883
101372.45451516366
102023.06286132985
102978.78993381116
104372.63582908374
106372.41116195863
109172.49416111315
112964.83510668798
117890.07052810943
123982.49828401276
131136.75188861633
139118.6367850233
147614.1192618218
156278.6815890388
164779.855683229
172801.57573834798
100066.2280964796
100091.06527177434
100127.50607704355
100181.26239044948
100260.84021811912
100378.82957288958
100553.70903681482
100812.27770325236
101192.74604493535
101748.40958919638
102561.77869569363
103744.90461908288
105441.26473325232
107822.13690534998
111067.11492648584
115326.84477655658
120673.85873404637
127061.24407390566
134312.8912368656
142155.4991749426
150273.19494405953
158350.31506261587
166103.56901909734
173269.4662274872
100088.3636373691
100120.62233121056
100167.89751341713
100237.46406846121
100340.0625093661
100491.41089315759
100714.23923612494
101040.88128107681
101516.40580857465
102210.20905790156
103216.95623986909
104659.41005840326
106687.75371077831
109467.14606587596
113150.51022222683
117837.27704634203
123530.58595557306
130113.0507718205
137358.4169446361
144976.23255121522
152663.9443366493
160143.45604355406
167176.86480077618
173553.56430427087
100116.91262639331
100158.53772059502
100219.44976155936
100308.81017684142
100440.00191065604
100632.33935730842
100913.255303196
101320.98207877463
101914.04047260869
102772.60226021669
104001.73987563192
105732.56169193234
108114.96283432131
111298.24596170396
115398.52004513737
120458.75247476721
126416.62946593086
133098.54623781878
140247.3337063961
147572.93332219307
154796.17071783158
161680.2804035931
168031.0568563625
173680.80143145676
100153.48870285264
100206.83550412107
100284.75368713433
100398.63873400255
100564.92266588903
100806.9270111153
101157.16838532477
101665.1264578451
102398.80634576261
103448.153709412
104927.2774191432
106970.6946824623
109720.20796963254
113300.11872445555
117782.54775044571
123153.04747056395
129292.04603115782
135984.95612701643
142960.887391015
149942.4695597082
156682.0350486615
162982.57930415217
168690.82176913726
173680.50510672768
100200.02562147132
100267.91172455013
100366.83257807116
100510.77018659475
100719.57877408565
101020.96362404633
101456.84705250774
102085.0030960081
102982.43750064327
104248.2048730762
106002.00291200851
108375.75079403473
111495.36508915616
115452.41437145325
120271.15988775328
125882.84523763061
132121.20505737528
138745.88545341007
145486.52435674076
152087.25313467762
158335.48929369263
164072.3346119354
169182.3839926589
173570.989238979
100258.8130942112
100344.56834352287
100469.16488013417
100649.50561622069
100909.2282739885
101283.89325209818
101822.64789592203
102591.43355979776
103676.0555440091
105182.3057728642
107230.98787717249
109945.03739609238
113427.182222296
117730.79659944045
122831.58205606234
128612.73301560876
134873.2718365082
141361.22210142884
147816.96620877247
154012.18590465054
159771.13226739527
164970.75332776748
169527.65357369854
173379.7811052882
100332.53236898687
100440.04312874786
100595.70147052873
100819.6649302858
101142.12607392059
101604.9133505716
102264.48814104091
103195.04554860423
104489.61964185238
106257.50736810917
108615.53610089068
111671.2012006439
115498.04161773318
120108.13047827601
125431.03467014272
131310.3620176735
137522.40922245808
143814.95512070385
149948.6158169605
155725.7487157179
161005.23019881546
165697.97261920993
169749.28448639126
173123.46063756137
100424.28860106508
100558.03762811093
100750.9151000677
101028.53882610411
101426.4820014489
101993.07080084839
102792.35417711579
103905.80794220314
105431.38293763873
107477.94830687038
110152.96159745028
113542.56424107852
117686.68957003788
122555.6449952857
128037.78603831236
133946.26526569983
140047.4458977002
146097.58939118416
151882.23305802487
157236.90438727746
162053.51639716618
166273.060039687
169868.0131549723
172827.57746486814
100537.64683631298
100702.77844039352
100941.34201098108
101283.50057761623
101770.54013937191
102457.65639923455
103415.92558896274
104732.5068794105
106507.35127958897
108844.46820492506
111836.52808320674
115543.4469332916
119969.15085905885
125043.95333165333
130621.92985419292
136495.84892416312
142430.91153991965
148201.29493615206
153620.37370424785
158555.8830046913
162931.9817463927
166716.20582112554
169906.45947770358
172519.09111395534
100676.6975316295
100880.25399266502
101173.68194610524
101592.09184494981
102182.9083672477
103007.91781547511
104144.18067384369
105682.3601251532
107720.89257876742
110354.29127221064
113655.60962821053
117654.87782156732
122319.49528563369
127543.98895842549
133155.34628864154
138936.82168995048
144660.50773059693
150122.78291603722
155167.73074971203
159694.44333119044
163656.12285153754
167046.4820205855
169888.41017194896
172242.37477644798
100847.12791383223
101096.67930149236
101454.89565974653
101962.28637855047
102672.31345662136
103652.7105504185
104984.94299341888
106760.49148482177
109072.36471451801
112001.10043726896
115595.8972494825
119855.08991490504
124710.92705859622
130027.3053286608
135613.36206125608
141250.34464284917
146725.28357799508
151860.68279967128
156530.14808381104
160663.76404173757
164241.83907437162
167283.40270251973
169844.2010007493
172050.97211181742
101054.86946596578
101358.57791862414
101792.41445563606
102402.29714689644
103247.35209356458
104400.1338070186
105944.47701836101
107969.53727246744
110558.88445317802
113774.86174691224
117639.92237634111
122119.89001913989
127115.74117829493
132467.19157099392
137973.20708884517
143421.2945494256
148618.3811339547
153414.75174886052
157713.6667899508
161474.35406998
164702.7395169011
167444.68041814564
169804.09326997108
101306.2009192552
101672.95263114347
102193.97057027146
102920.34826292998
103916.11929087674
105257.13535539884
107027.09704362976
109309.34446551987
112174.15825985203
115662.16153078781
119767.3382524683
124424.52429434267
129507.03051309555
134838.24647869758
140214.71031197798
145436.32436815565
150333.4799780892
154784.55762246446
158722.8623360125
162133.62655172538
165046.09812901457
167538.45848780675
101607.87516893922
102047.16087294338
102667.4151253222
103524.39909667254
104685.8775600359
106229.08147360329
108234.67038267748
110776.70481065747
113908.51803203618
117646.44184015394
121955.55931498951
126742.19011330979
131857.85010744957
137116.74020648445
142319.2973830971
147283.2783688888
151864.4705826351
155969.69621015186
159558.29477032853
162638.48276020706
165258.25007263478
101967.01181707258
102488.72657097106
103220.47403658649
104221.79770431702
105562.69211154772
107319.36516404405
109566.3997900016
112365.07672503733
115748.60748890605
119707.7802836161
124179.51791936922
129045.50460590869
134141.85377429178
139279.40802352355
144269.1729233599
148950.08208305092
153203.34399195938
156962.27943915024
160207.45093849397
162955.39463528455
102390.94360282227
103005.13788235853
103860.44797784631
105018.95284161744
106550.98498628753
108529.06081680309
111018.48566189443
114064.64487183477
117678.33932151445
121824.01220182375
126413.15802799922
131307.16981595746
136332.75320525697
141303.49788811977
146046.22667114533
150421.2984416389
154335.34444733127
157739.60415229338
160617.2621590006
102886.99004371882
103603.58796952265
104593.8909754227
105920.97050519605
107653.15241188067
109856.48320523591
112583.84871893878
115861.78322457669
119677.82789696382
123970.49655323292
128628.3155368288
133498.50460906123
138403.53982599947
143165.45950284787
147628.68486092222
151674.63233725892
155226.61717431806
158231.98300904752
103462.24042349064
104290.65328754061
105426.27920780508
106931.17826174616
108869.20935393612
111296.93067216747
114251.80787697069
117739.7472471562
121723.90131182096
126118.94061584731
130795.15354081654
135589.12158537185
140325.13087029153
144836.96921644468
148985.91076057847
152666.51330340144
155791.98984745418
104123.25591671331
105071.96193339252
106361.54102791092
108050.74924037824
110196.15719651623
112842.07324444686
116008.07046370383
119677.73705561188
123790.37993829697
128239.83612700888
132880.79213451387
137545.5141250169
142063.24111447326
146279.3963494006
150063.61844826597
153295.1581494828
104875.71160337843
105951.82109848966
107401.70622841916
109278.3124587655
111628.13246619192
114480.15822288413
117834.24282746644
121650.98989172242
125847.18850959407
130298.08478442127
134847.88971712295
139327.75634564218
143572.11384964912
147428.98967097918
150746.81626335194
105724.04886185695
106932.75313596627
108546.45514215624
110609.38609032838
113155.13618212634
116194.9657286725
119707.56849901107
123630.2607329431
127859.36045239691
132254.6574525443
136653.0401459811
140883.58597396503
144778.66393741823
148157.6282899633
106671.05989554955
108015.0800408167
109792.37134395252
112035.7204320304
114762.9957828996
117965.66963750235
121599.86844223976
125580.83442185244
129786.00540585474
134061.6237594751
138237.15574370633
142132.50246276145
145543.42238915424
107717.35454388437
109196.33573959868
111132.91908459946
113545.34562324968
116432.945340358
119765.91446523186
123477.21422159078
127460.95503505427
131576.15301243783
135655.97831413668
139512.7496548684
142923.97611349705
108860.97235739538
110470.74080848738
112557.12786261577
115120.73941567303
118140.30480059862
121562.84076043095
125297.96535400729
129218.32647807748
133163.49965021692
136943.7400566339
140321.79230728286
110096.62466293543
111828.56880463765
114049.35625574594
116739.1514485188
119853.61712677804
123315.15542132182
127008.9911847177
130783.89477295612
134450.1918557367
137761.24192436057
111415.1685034446
113255.22541313883
115588.09019414205
118370.4600844199
121532.52722392845
124969.73872452817
128539.69346361738
132056.21421499626
135266.9092662117
112802.62630896231
114730.30039599485
117144.63962396946
119975.4257493096
123124.2291525742
126455.57766788162
129787.1237630738
132864.537258326
114239.19456703002
116226.18101243107
118680.85271546223
121502.58620526442
124558.21526971574
127669.23354386416
130580.07742187484
115698.00757215155
117706.03539059067
120146.78815077533
122882.10442188
125732.20697312595
128441.06958865545
117142.97060657738
119120.65043438374
121473.5530682272
124012.8547734688
126478.79662493365
118525.6305792951
120402.87070768341
122562.42815313666
124732.2639727332
119779.76731473781
121455.93528640647
123254.7077212623
120809.88565666701
122125.00100851555
121464.22057399881
SCALARS T float 1
LOOKUP_TABLE default
300.1190468740852
300.1187324121284
300.1684204586096
300.11667404985604
300.16826838384145
300.2410322008341
300.1131536000619
300.165382156743
300.241166120065
300.34828305373554
300.1084388742265
300.1602712379842
300.2369189919468
300.34888041681904
300.5075554716729
300.10279979826134
300.15339113620365
300.22918336495604
300.34232989843355
300.5088663339294
300.74575913662204
300.09650241623586
300.14517673294523
300.218755217829
300.3302029442545
300.4982928840322
300.74805392142065
301.10544496508084
300.0897971603419
300.13603977709937
300.20637248653026
300.31391969259636
300.47867907490297
300.7301799185023
301.1086456671642
301.6559661196224
300.08290830089555
300.12635599861204
300.1927074329572
300.29476806693344
300.4526203697373
300.6975018766992
301.0768700001117
301.6580810926719
302.5157046991347
300.0760272769893
300.11645346312804
300.1783495875363
300.27387634193786
300.42240717243976
300.6548931745992
301.0207757517176
301.59828797945477
302.50675033654306
303.9015380527423
300.0693101304871
300.1066059908526
300.1637936463685
300.2521886677049
300.3899534987623
300.6064710975321
300.94973243167095
301.4989806214457
302.3868671371741
303.84029398415475
306.2552559209623
300.062878218716
300.09703207868245
300.1494370974024
300.23046043560214
300.35677726957397
300.5554782007403
300.8711470837186
301.37842593210985
302.20551942104595
303.58342082615167
305.97696721403065
310.61494340947127
300.05682129563473
300.0878981359242
300.13558495973615
300.20926704342594
300.32402031325944
300.5043176365445
300.79041729302185
301.24972495790286
301.9980032535008
303.24289444547674
305.39241416098787
309.4420512286541
319.8172487311697
300.05120181295183
300.0793243627076
300.1224599399596
300.18902677708104
300.29250037955694
300.4546704412747
300.7112123369561
301.121468091192
301.7862920425353
302.8828151916628
304.74169637111044
308.06536827971394
314.81711413373597
327.8204182187071
300.04605977327725
300.0713919794203
300.1102151462961
300.170026081792
300.262767195806
300.4076407283705
300.63586564064684
300.99887666510875
301.58285410995535
302.53551326955846
304.11931750859367
306.83216792797737
311.724081557702
320.55812520328743
333.8360496347154
300.0414176314659
300.0641506918527
300.0989471906598
300.152445753495
300.2351627437508
300.3638974116412
300.56573875290536
300.8848437177962
301.3940948972139
302.21554986943437
303.5574105107887
305.78380946814144
309.54435761446655
315.940743133962
325.8256910323767
338.5762021392703
300.03728483668306
300.0576260810615
300.0887087041969
300.1363856293056
300.2098731550587
300.3237912898341
300.50151523642967
300.78073630594463
301.22276816838934
301.92819935675163
303.0631665243052
304.9024221403417
307.890704938386
312.7638273502996
320.2600232250963
330.45165220680514
342.3960488928522
300.03366196008614
300.0518260628427
300.07951974481756
300.1218850311658
300.18697009392605
300.28745202239037
300.44342846853584
300.6869650991068
301.069526323632
301.67404944869475
302.63409506660895
304.1622864617286
306.5840223047481
310.42554453341614
316.27176216274887
324.4020363548351
334.4568133931405
345.50395344685666
300.03054442488605
300.0467467640327
300.0713774851253
300.108941247923