# vtk DataFile Version 2.0
JuliaCFD
ASCII
DATASET UNSTRUCTURED_GRID

POINTS 1900 float
0.0 0.0 0.005
0.0 0.0416667 0.005
0.0 0.0833333 0.005
0.0 0.125 0.005
0.0 0.166667 0.005
0.0 0.208333 0.005
0.0 0.25 0.005
0.0 0.291667 0.005
0.0 0.333333 0.005
0.0 0.375 0.005
0.0 0.416667 0.005
0.0 0.458333 0.005
0.0 0.5 0.005
0.0 0.541667 0.005
0.0 0.583333 0.005
0.0 0.625 0.005
0.0 0.666667 0.005
0.0 0.708333 0.005
0.0 0.75 0.005
0.0 0.791667 0.005
0.0 0.833333 0.005
0.0 0.875 0.005
0.0 0.916667 0.005
0.0 0.958333 0.005
0.0 1.0 0.005
0.0409575 0.0 0.005
0.0409401 0.0416667 0.005
0.0409227 0.0833333 0.005
0.0409054 0.125 0.005
0.040888 0.166667 0.005
0.0408706 0.208333 0.005
0.0408532 0.25 0.005
0.0408359 0.291667 0.005
0.0408185 0.333333 0.005
0.0408011 0.375 0.005
0.0407838 0.416667 0.005
0.0407664 0.458333 0.005
0.040749 0.5 0.005
0.0407316 0.541667 0.005
0.0407143 0.583333 0.005
0.0406969 0.625 0.005
0.0406795 0.666667 0.005
0.0406621 0.708333 0.005
0.0406448 0.75 0.005
0.0406274 0.791667 0.005
0.04061 0.833333 0.005
0.0405927 0.875 0.005
0.0405753 0.916667 0.005
0.0405579 0.958333 0.005
0.0405405 1.0 0.005
0.0819149 0.0 0.005
0.0818802 0.0416667 0.005
0.0818455 0.0833333 0.005
0.0818107 0.125 0.005
0.081776 0.166667 0.005
0.0817412 0.208333 0.005
0.0817065 0.25 0.005
0.0816717 0.291667 0.005
0.081637 0.333333 0.005
0.0816022 0.375 0.005
0.0815675 0.416667 0.005
0.0815328 0.458333 0.005
0.081498 0.5 0.005
0.0814633 0.541667 0.005
0.0814285 0.583333 0.005
0.0813938 0.625 0.005
0.081359 0.666667 0.005
0.0813243 0.708333 0.005
0.0812895 0.75 0.005
0.0812548 0.791667 0.005
0.0812201 0.833333 0.005
0.0811853 0.875 0.005
0.0811506 0.916667 0.005
0.0811158 0.958333 0.005
0.0810811 1.0 0.005
0.122872 0.0 0.005
0.12282 0.0416667 0.005
0.122768 0.0833333 0.005
0.122716 0.125 0.005
0.122664 0.166667 0.005
0.122612 0.208333 0.005
0.12256 0.25 0.005
0.122508 0.291667 0.005
0.122455 0.333333 0.005
0.122403 0.375 0.005
0.122351 0.416667 0.005
0.122299 0.458333 0.005
0.122247 0.5 0.005
0.122195 0.541667 0.005
0.122143 0.583333 0.005
0.122091 0.625 0.005
0.122039 0.666667 0.005
0.121986 0.708333 0.005
0.121934 0.75 0.005
0.121882 0.791667 0.005
0.12183 0.833333 0.005
0.121778 0.875 0.005
0.121726 0.916667 0.005
0.121674 0.958333 0.005
0.121622 1.0 0.005
0.16383 0.0 0.005
0.16376 0.0416667 0.005
0.163691 0.0833333 0.005
0.163621 0.125 0.005
0.163552 0.166667 0.005
0.163482 0.208333 0.005
0.163413 0.25 0.005
0.163343 0.291667 0.005
0.163274 0.333333 0.005
0.163204 0.375 0.005
0.163135 0.416667 0.005
0.163066 0.458333 0.005
0.162996 0.5 0.005
0.162927 0.541667 0.005
0.162857 0.583333 0.005
0.162788 0.625 0.005
0.162718 0.666667 0.005
0.162649 0.708333 0.005
0.162579 0.75 0.005
0.16251 0.791667 0.005
0.16244 0.833333 0.005
0.162371 0.875 0.005
0.162301 0.916667 0.005
0.162232 0.958333 0.005
0.162162 1.0 0.005
0.204787 0.0 0.005
0.2047 0.0416667 0.005
0.204614 0.0833333 0.005
0.204527 0.125 0.005
0.20444 0.166667 0.005
0.204353 0.208333 0.005
0.204266 0.25 0.005
0.204179 0.291667 0.005
0.204092 0.333333 0.005
0.204006 0.375 0.005
0.203919 0.416667 0.005
0.203832 0.458333 0.005
0.203745 0.5 0.005
0.203658 0.541667 0.005
0.203571 0.583333 0.005
0.203484 0.625 0.005
0.203398 0.666667 0.005
0.203311 0.708333 0.005
0.203224 0.75 0.005
0.203137 0.791667 0.005
0.20305 0.833333 0.005
0.202963 0.875 0.005
0.202876 0.916667 0.005
0.20279 0.958333 0.005
0.202703 1.0 0.005
0.245745 0.0 0.005
0.245641 0.0416667 0.005
0.245536 0.0833333 0.005
0.245432 0.125 0.005
0.245328 0.166667 0.005
0.245224 0.208333 0.005
0.245119 0.25 0.005
0.245015 0.291667 0.005
0.244911 0.333333 0.005
0.244807 0.375 0.005
0.244703 0.416667 0.005
0.244598 0.458333 0.005
0.244494 0.5 0.005
0.24439 0.541667 0.005
0.244286 0.583333 0.005
0.244181 0.625 0.005
0.244077 0.666667 0.005
0.243973 0.708333 0.005
0.243869 0.75 0.005
0.243764 0.791667 0.005
0.24366 0.833333 0.005
0.243556 0.875 0.005
0.243452 0.916667 0.005
0.243347 0.958333 0.005
0.243243 1.0 0.005
0.286702 0.0 0.005
0.286581 0.0416667 0.005
0.286459 0.0833333 0.005
0.286337 0.125 0.005
0.286216 0.166667 0.005
0.286094 0.208333 0.005
0.285973 0.25 0.005
0.285851 0.291667 0.005
0.285729 0.333333 0.005
0.285608 0.375 0.005
0.285486 0.416667 0.005
0.285365 0.458333 0.005
0.285243 0.5 0.005
0.285121 0.541667 0.005
0.285 0.583333 0.005
0.284878 0.625 0.005
0.284757 0.666667 0.005
0.284635 0.708333 0.005
0.284513 0.75 0.005
0.284392 0.791667 0.005
0.28427 0.833333 0.005
0.284149 0.875 0.005
0.284027 0.916667 0.005
0.283905 0.958333 0.005
0.283784 1.0 0.005
0.32766 0.0 0.005
0.327521 0.0416667 0.005
0.327382 0.0833333 0.005
0.327243 0.125 0.005
0.327104 0.166667 0.005
0.326965 0.208333 0.005
0.326826 0.25 0.005
0.326687 0.291667 0.005
0.326548 0.333333 0.005
0.326409 0.375 0.005
0.32627 0.416667 0.005
0.326131 0.458333 0.005
0.325992 0.5 0.005
0.325853 0.541667 0.005
0.325714 0.583333 0.005
0.325575 0.625 0.005
0.325436 0.666667 0.005
0.325297 0.708333 0.005
0.325158 0.75 0.005
0.325019 0.791667 0.005
0.32488 0.833333 0.005
0.324741 0.875 0.005
0.324602 0.916667 0.005
0.324463 0.958333 0.005
0.324324 1.0 0.005
0.368617 0.0 0.005
0.368461 0.0416667 0.005
0.368305 0.0833333 0.005
0.368148 0.125 0.005
0.367992 0.166667 0.005
0.367835 0.208333 0.005
0.367679 0.25 0.005
0.367523 0.291667 0.005
0.367366 0.333333 0.005
0.36721 0.375 0.005
0.367054 0.416667 0.005
0.366897 0.458333 0.005
0.366741 0.5 0.005
0.366585 0.541667 0.005
0.366428 0.583333 0.005
0.366272 0.625 0.005
0.366116 0.666667 0.005
0.365959 0.708333 0.005
0.365803 0.75 0.005
0.365647 0.791667 0.005
0.36549 0.833333 0.005
0.365334 0.875 0.005
0.365178 0.916667 0.005
0.365021 0.958333 0.005
0.364865 1.0 0.005
0.409575 0.0 0.005
0.409401 0.0416667 0.005
0.409227 0.0833333 0.005
0.409054 0.125 0.005
0.40888 0.166667 0.005
0.408706 0.208333 0.005
0.408532 0.25 0.005
0.408359 0.291667 0.005
0.408185 0.333333 0.005
0.408011 0.375 0.005
0.407838 0.416667 0.005
0.407664 0.458333 0.005
0.40749 0.5 0.005
0.407316 0.541667 0.005
0.407143 0.583333 0.005
0.406969 0.625 0.005
0.406795 0.666667 0.005
0.406621 0.708333 0.005
0.406448 0.75 0.005
0.406274 0.791667 0.005
0.4061 0.833333 0.005
0.405927 0.875 0.005
0.405753 0.916667 0.005
0.405579 0.958333 0.005
0.405405 1.0 0.005
0.450532 0.0 0.005
0.450341 0.0416667 0.005
0.45015 0.0833333 0.005
0.449959 0.125 0.005
0.449768 0.166667 0.005
0.449577 0.208333 0.005
0.449386 0.25 0.005
0.449195 0.291667 0.005
0.449003 0.333333 0.005
0.448812 0.375 0.005
0.448621 0.416667 0.005
0.44843 0.458333 0.005
0.448239 0.5 0.005
0.448048 0.541667 0.005
0.447857 0.583333 0.005
0.447666 0.625 0.005
0.447475 0.666667 0.005
0.447284 0.708333 0.005
0.447093 0.75 0.005
0.446901 0.791667 0.005
0.44671 0.833333 0.005
0.446519 0.875 0.005
0.446328 0.916667 0.005
0.446137 0.958333 0.005
0.445946 1.0 0.005
0.49149 0.0 0.005
0.491281 0.0416667 0.005
0.491073 0.0833333 0.005
0.490864 0.125 0.005
0.490656 0.166667 0.005
0.490447 0.208333 0.005
0.490239 0.25 0.005
0.49003 0.291667 0.005
0.489822 0.333333 0.005
0.489613 0.375 0.005
0.489405 0.416667 0.005
0.489197 0.458333 0.005
0.488988 0.5 0.005
0.48878 0.541667 0.005
0.488571 0.583333 0.005
0.488363 0.625 0.005
0.488154 0.666667 0.005
0.487946 0.708333 0.005
0.487737 0.75 0.005
0.487529 0.791667 0.005
0.48732 0.833333 0.005
0.487112 0.875 0.005
0.486903 0.916667 0.005
0.486695 0.958333 0.005
0.486486 1.0 0.005
0.531954 0.00563435 0.005
0.531749 0.0470663 0.005
0.531544 0.0884982 0.005
0.531338 0.12993 0.005
0.531133 0.171362 0.005
0.530928 0.212794 0.005
0.530722 0.254226 0.005
0.530517 0.295658 0.005
0.530312 0.33709 0.005
0.530107 0.378521 0.005
0.529901 0.419953 0.005
0.529696 0.461385 0.005
0.529491 0.502817 0.005
0.529285 0.544249 0.005
0.52908 0.585681 0.005
0.528875 0.627113 0.005
0.528669 0.668545 0.005
0.528464 0.709977 0.005
0.528259 0.751409 0.005
0.528054 0.79284 0.005
0.527848 0.834272 0.005
0.527643 0.875704 0.005
0.527438 0.917136 0.005
0.527232 0.958568 0.005
0.527027 1.0 0.005
0.572289 0.0127465 0.005
0.572093 0.0538821 0.005
0.571896 0.0950177 0.005
0.571699 0.136153 0.005
0.571502 0.177289 0.005
0.571306 0.218424 0.005
0.571109 0.25956 0.005
0.570912 0.300695 0.005
0.570715 0.341831 0.005
0.570519 0.382967 0.005
0.570322 0.424102 0.005
0.570125 0.465238 0.005
0.569928 0.506373 0.005
0.569732 0.547509 0.005
0.569535 0.588644 0.005
0.569338 0.62978 0.005
0.569142 0.670916 0.005
0.568945 0.712051 0.005
0.568748 0.753187 0.005
0.568551 0.794322 0.005
0.568355 0.835458 0.005
0.568158 0.876593 0.005
0.567961 0.917729 0.005
0.567764 0.958864 0.005
0.567568 1.0 0.005
0.612625 0.0198587 0.005
0.612436 0.0606979 0.005
0.612248 0.101537 0.005
0.61206 0.142376 0.005
0.611872 0.183216 0.005
0.611684 0.224055 0.005
0.611496 0.264894 0.005
0.611307 0.305733 0.005
0.611119 0.346572 0.005
0.610931 0.387412 0.005
0.610743 0.428251 0.005
0.610555 0.46909 0.005
0.610366 0.509929 0.005
0.610178 0.550769 0.005
0.60999 0.591608 0.005
0.609802 0.632447 0.005
0.609614 0.673286 0.005
0.609425 0.714125 0.005
0.609237 0.754965 0.005
0.609049 0.795804 0.005
0.608861 0.836643 0.005
0.608673 0.877482 0.005
0.608484 0.918322 0.005
0.608296 0.959161 0.005
0.608108 1.0 0.005
0.65296 0.0269708 0.005
0.65278 0.0675137 0.005
0.652601 0.108057 0.005
0.652421 0.148599 0.005
0.652241 0.189142 0.005
0.652062 0.229685 0.005
0.651882 0.270228 0.005
0.651702 0.310771 0.005
0.651523 0.351314 0.005
0.651343 0.391857 0.005
0.651164 0.4324 0.005
0.650984 0.472943 0.005
0.650804 0.513485 0.005
0.650625 0.554028 0.005
0.650445 0.594571 0.005
0.650265 0.635114 0.005
0.650086 0.675657 0.005
0.649906 0.7162 0.005
0.649726 0.756743 0.005
0.649547 0.797286 0.005
0.649367 0.837828 0.005
0.649188 0.878371 0.005
0.649008 0.918914 0.005
0.648828 0.959457 0.005
0.648649 1.0 0.005
0.693295 0.034083 0.005
0.693124 0.0743295 0.005
0.692953 0.114576 0.005
0.692782 0.154823 0.005
0.692611 0.195069 0.005
0.69244 0.235316 0.005
0.692269 0.275562 0.005
0.692098 0.315809 0.005
0.691926 0.356055 0.005
0.691755 0.396302 0.005
0.691584 0.436548 0.005
[...]
CELL_DATA 888
SCALARS P float 1
LOOKUP_TABLE default
100031.07839249134
100030.84019742138
100047.25359178246
100029.71405564721
100047.03028786526
100075.80696736027
100027.87540313082
100045.34048054896
100075.613131977
100124.70194063408
100025.50790650572
100042.50378564624
100072.86484243498
100124.58298031904
100206.89972049998
100022.79989416017
100038.83673766145
100068.15759272243
100119.8917931848
100206.95601781477
100343.56997601005
100019.93089729652
100034.65035675523
100062.07381885735
100111.76678396168
100198.6995706287
100343.93886079961
100569.71268608747
100017.05835043023
100030.23187066842
100055.16857523989
100101.31622303062
100184.3702651487
100329.02398669864
100570.3015921376
100944.75337693008
100014.30858105274
100025.82668278474
100047.936520105
100089.56474276696
100166.12272565278
100303.37497295075
100542.51023764057
100943.90502715504
101574.87521074961
100011.77313217091
100021.62718260857
100040.78509893415
100077.38952819079
100145.87403270026
100271.25211248743
100495.92699779484
100889.90785959047
101563.65939523665
102667.08102552252
100009.50962497403
100017.76949545176
100034.02165530808
100065.48134611303
100125.18564628522
100236.24665117513
100439.07356766987
100803.80542771576
101452.74975204148
102605.67803643065
104682.40068295343
100007.54579989992
100014.3367205079
100027.8544318796
100054.33685760263
100105.22317105233
100201.10652364057
100378.6139257487
100702.69543692989
101290.12210219554
102361.85728463373
104398.41899679006
108845.8442430677
100005.88534620707
100011.3664642574
100022.4028154563
100044.27235851956
100086.773424368
100167.74729655436
100319.25094355695
100598.62440225555
101109.51085613195
102047.16605970892
103822.5042258431
107557.9120907752
119159.05510995112
100004.51421448728
100008.86045552655
100017.7131139345
100035.45252466782
100070.29986424708
100137.36426829976
100263.98314648902
100499.21223943058
100931.40131258083
101723.82217952664
103200.76227162531
106122.06362060513
112955.40527354248
128591.76468000568
100003.40663975399
100006.79448189538
100013.77617442462
100027.9232491714
100056.0081488543
100110.58266463508
100214.48716742835
100408.76633996054
100766.90965236812
101421.98265709211
102624.64527723048
104892.43083132737
109472.58306678559
118968.75576153811
135778.6288227179
100002.53035693249
100005.12753986414
100010.54421012398
100021.64446081042
100043.91465382781
100087.60785997147
100171.48423147252
100329.30589814509
100621.21148766797
101154.2432772685
102121.89872898237
103888.79638859822
107185.06373069611
113474.54172969222
124614.22292663873
141426.01866854538
100001.85071561825
100003.80963158436
100007.94557479768
100016.51940327893
100033.9066049765
100068.35441104283
100135.04396621739
100261.35984303024
100495.92027858378
100924.1799899165
101696.10357474275
103077.28602780489
105542.38045762219
109987.67831941109
117666.68934641105
129623.9116269094
145921.2368700115
100001.33371976465
100002.78777117968
100005.89683292768
100012.4185316712
100025.79082054542
100052.55266492086
100104.82283789369
100204.54000210259
100390.61300020665
100730.88019425051
101342.03427212918
102422.61030662694
104303.85651662089
107580.33106138108
113101.87162573045
121741.63931218682
133966.73865410345
149508.89575130225
100000.94808794773
100002.0103866931
100004.3118012942
100009.19849597453
100019.33305790051
100039.82885033813
100080.23608486285
100157.92944643361
100303.76377096989
100571.30673777196
101051.58251457765
101895.65014434051
103345.61037074543
105821.24413983592
109921.75854818622
116322.3941773977
125541.9663907366
137684.23643995714
152364.2225240265
100000.66647283737
100001.4302546898
100003.1079309774
100006.71549987116
100014.28599103587
100029.76460813606
100060.58352912894
100120.35139379225
100233.31600742003
100441.54452446324
100816.06152968865
101473.07701727613
102594.75083713973
104490.4729874012
107600.6406692054
112446.83285038375
119498.70114671823
128996.92684231733
140838.95123299977
154623.79643937835
100000.4661042426
100001.00621335181
100002.21049197672
100004.8346339808
100010.4093545369
100021.93815804685
100045.13394479066
100090.53907435798
100177.03561419409
100337.45548864885
100627.12515341642
101135.97522717717
102003.45745267245
103463.93197651992
105851.63636237365
109576.47806833261
115044.80045462662
122532.27051342544
132085.2250618922
143498.2587602918
156399.19013202455
100000.32908416571
100000.70404036487
100001.5548400151
100003.43534064764
100007.48203195805
100015.95138346276
100033.18078757943
100067.2462093389
100132.71496799696
100255.03096366177
100477.1484225115
100868.79961578005
101537.77667072492
102664.40840957416
104507.76997626218
107395.32331780712
111675.57763566534
117626.33253905576
125364.61685349977
134813.42710269603
145728.63331816293
157784.50152044566
100000.24259384195
100000.49686376033
100001.08752579012
100002.4144723725
100005.30969702479
100011.44594608874
100024.07561730473
100049.31550510637
100098.29343798089
100190.57630818071
100359.34981346734
100658.63271371636
101172.09643722078
102039.6238798876
103464.42161297187
105710.63501020045
109076.44955384436
113829.12293955854
120125.91410978345
127966.69483033102
137204.22052932106
147593.35708957832
158860.46210868235
100000.19941196819
100000.36551290772
100000.76676354844
100001.68736708778
100003.72777425869
100008.1114716063
100017.246552561
100035.71259124654
100071.92316638808
100140.79780376791
100267.8160348191
100494.68993624618
100886.39607688338
101551.77602926886
102650.97556439375
104397.88983786812
107046.40271081636
110846.38100850761
115978.5903499646
122499.29787785823
130329.34948100173
139288.7761466309
149151.66043526272
159696.77008048553
100000.29946212404
100000.56290640502
100001.18823672392
100002.60242122087
100005.68820809477
100012.20583322819
100025.5434639393
100051.99458337184
100102.82994625269
100197.46907996951
100367.96491369861
100664.6603626365
101172.17626725783
102016.80887889393
103371.55603922118
105450.88745027142
108482.84128261816
112658.77428046154
118078.35709625286
124719.91639215389
132457.26331820936
141101.82670090234
150457.69864137328
160350.7180373247
100000.45998571246
100000.87067034372
100001.83023831519
100003.9666904288
100008.55005949616
100018.05651156827
100037.14118774417
100074.23487460318
100144.01578610086
100270.9552757183
100493.89369189765
100878.41144065329
101523.85771768073
102569.55793927572
104194.93631550187
106603.31501218265
109985.8923531008
114473.08744128095
120095.07289348789
126775.35909878471
134363.98500214182
142679.80168166797
151559.62822778642
160872.44803596995
100000.70999064078
100001.33873814263
100002.78621303172
100005.95645181109
100012.6366543588
100026.2303724883
100052.9779069562
100103.87262404093
100197.45642586546
100363.5175239021
100652.6302043792
101142.56796953686
101944.85832717334
103207.98688759274
105109.4159402026
107831.58583290006
111522.88932380939
116256.46550472613
122007.06593483196
128663.83313398623
136068.70792044647
144057.88694462072
152500.93576346306
161299.77702567563
100001.08970823564
100002.03469837748
100004.17912942723
100008.7962652703
100018.34482630993
100037.39283311923
100074.09250970127
100142.37240809918
100264.91501679701
100480.47239473055
100849.54895080363
101460.7584277739
102435.59918233662
103925.93909387542
106099.50088701297
109110.98964321843
113064.76322599124
117983.70696227068
123802.24731456995
130390.71138361089
137593.52930588054
145269.53507504525
153315.50449726314
161665.48693543114
100001.6535129418
100003.0474705054
100006.16593143376
100012.7627495014
100026.14315773113
100052.28852472364
100101.56341551084
100191.09758656929
100350.35857457062
100626.0742623271
101088.06223243222
101834.6031973682
102993.38783772787
104713.84978240993
107147.56074214006
110417.82694628126
114587.187046001
119637.52339636558
125476.18368260984
131966.32427196237
138961.32158010057
146344.05122550047
154035.84935686074
161992.63244108224
100002.47290133948
100004.49076970281
100008.94079856266
100018.18498437727
100036.56242856944
100071.70632180445
100136.43453436995
100252.96866467646
100457.09129228322
100803.3116258493
101370.24021146815
102263.4817091604
103612.73386318883
105559.70531358966
108235.36553923735
111730.72089779186
116071.09420147438
121207.18896249702
127030.04466100357
133402.9735182439
140194.05054023495
147306.59746027912
154683.62075024212
162301.1860790342
100003.63935370819
100006.50577002263
100012.73636360676
100025.4400991449
100050.17640863018
100096.43929068041
100180.830549964
100330.50373647182
100587.60377191452
101014.29953339594
101696.61058334402
102744.60534263663
104285.90642860117
106450.16925039273
109345.33509642605
113031.47266796805
117502.66389739455
122687.42430365605
128469.05425627377
134715.65439552907
141311.91393314773
148179.1330287515
155278.9639179996
162598.7962584347
100005.26669961262
100009.26276243487
100017.8224920386
100034.94415571615
100067.58218135757
100128.01243151692
100236.63768989658
100425.71501400962
100743.84960792556
101260.10939143412
102066.0641532284
103273.2616295956
105003.56666534088
107371.58230892758
110461.49409789484
114305.38640109217
118872.68792567828
124077.57500558751
129800.68561210303
135918.26349657966
142332.05746150218
148979.22558330678
155834.40386401146
162898.04032289394
100007.4929680073
100012.961801884
100024.50347975218
100047.1457096339
100089.8623750934
100167.82049769182
100305.44316724315
100540.29090424566
100927.07128658099
101540.6184585742
102475.96302140795
103843.21207784479
105755.53836347928
108310.73897134533
111569.99613866303
115541.57086344631
120176.01923837545
125378.67094300642
131032.91198712432
137024.91392609823
143270.04890554366
149720.06142501402
156359.56923374016
163197.50520206516
100010.48173160301
100017.83308734004
100033.11845813596
100062.80756657504
100118.0369425692
100217.08736499818
100388.64114684275
100675.4558823341
101137.68996398649
101854.5443488448
102922.35131887505
104447.20387132523
106531.46084254955
109255.53989222895
112659.58402667144
116731.82579164929
121410.46935205576
126595.76152054044
132175.13143249098
138046.7653768582
144137.35152489407
150409.81662014767
156858.9963614263
163498.47704265578
100014.42422567318
100024.14189314772
100044.20593032567
100082.66748756933
100153.03186863672
100276.9291028496
100487.33062849093
100831.85913885228
101375.24916309668
102199.52688880745
103400.23428043016
105077.41174049344
107321.36100313785
110195.43064333798
113721.50854315357
117871.92510568353
122575.48160361529
127732.5482447543
133235.44795332663
138992.73888521298
144942.45499029657
151055.51881731485
157334.28912497606
163797.33167687457
100019.5462611102
100032.27895805835
100058.2999932941
100107.4187335097
100195.71862008821
100348.27842620149
100602.23039169796
101009.53572164048
101638.45308904894
102572.26885808016
103903.95767709642
105725.9647991938
108115.96597698443
111121.67047304033
114748.8610304087
118958.59328501232
123673.34055552712
128794.22172082787
134220.8384068559
139870.55751091253
145689.97588264552
151658.10506453863
157780.5475392763
164085.49980789158
100026.16120892428
100042.64247296736
100075.91858828746
100137.73025386836
100246.85839339987
100431.81731614973
100733.61458828664
101207.87618873121
101925.24898692619
102968.82360742241
104427.48962309516
106385.25529800354
108907.31340163702
112026.99729645642
115737.38150295282
119990.20012427853
124705.02865603636
129785.28244239709
135136.59101024215
140684.19781890512
146381.8218780984
152213.12296122152
158184.13588573472
164312.4704706767
100034.59401306529
100055.62898787267
100097.57235816678
100174.2065274257
100307.05387548168
100527.92620482008
100881.2910060245
101425.66502452438
102232.95397008251
103384.7495239821
104964.8085524782
107048.02132155623
109688.1909668909
112905.99985051811
116683.772916474
120966.80157989604
125673.26971581072
130709.08642218745
135985.53948423802
141433.97767086574
147012.28190779904
152700.49143407843
158484.00959002535
100045.17520827726
100071.63553410587
100123.73604843779
100217.35291996703
100376.70046254942
100636.6504573309
101044.61717546442
101661.16425071911
102558.43031843488
103815.44128225549
105510.0878512134
107708.41494393694
110453.12110426425
113754.44518282828
117586.04099963856
121888.4306273785
126579.07747429945
131566.09855147725
136766.34701236326
142113.29066985706
147558.6399195433
153053.61414829263
100058.23904917634
100091.04090610569
100154.8226213099
100267.53916230914
100455.9592974763
100757.69058810308
101222.50367589742
101912.2190080883
102898.27770108522
104256.32182985562
106058.01942233606
108360.75505516242
111197.32745261274
114569.25186727413
118442.54728914145
122754.69392967047
127422.07427953389
132355.5219470282
137471.1568988457
142696.9575691893
147948.20488027844
100074.10845654934
100114.18361112151
100191.15586764333
100324.97235351802
100544.74649708722
100890.4163635497
101413.51370007597
102176.35008968344
103248.8203556934
104702.79515525117
106603.48817012568
109000.14144505304
111917.02403370223
115347.37622596821
119251.4854275029
123563.85384439402
128198.95190990042
133066.6161016053
138074.51661193022
143108.73601441437
100093.07881368285
100141.34354795287
100232.95042163991
100389.68259837646
100642.72823697815
101033.91032654405
101615.93118577426
102450.95351719488
103606.72386704037
105150.79606236708
107142.36460871757
109622.8769275964
112608.82013237577
116086.01907917068
120010.22370785747
124310.71266362636
128899.23553976728
133672.66777460085
138496.3985214992
100115.40015857627
100172.72420453081
100280.29493370351
100461.52335540726
100749.33800297568
101187.00801757883
101827.85814685847
102733.22484885708
103968.52436524065
105596.73377355779
107670.74466173333
110225.34600386674
113269.32265682345
116781.97840403041
120712.93156339083
124984.43001123024
129494.1345728655
134094.47467275785
100141.26476266606
100208.44010859776
100333.15044324685
100540.16727116944
100863.82419762551
101348.38338061828
102047.23558030567
103020.58541851789
104330.9222456565
106036.67368469194
108185.20883499386
110803.8827579164
113894.49240440203
117429.00720193924
121347.9534078376
125556.96266079815
129906.81726297918
100170.79454273073
100248.50825998324
100391.34250310881
100625.13057571411
100985.22330143434
101516.50442682113
102272.03456527139
103310.39628107352
104690.97915521932
106467.91360813305
108682.08132254053
111354.20415267152
114477.9192184731
118014.8661238628
121886.74083166441
125951.74571674624
100204.03307746878
100292.84910104047
100454.57841128312
100715.80541343929
101112.57009219019
101689.89646901508
102500.21210375144
103600.15783127847
105045.86415287718
106886.53002740502
109156.78828815022
111869.6808811537
115007.7271003655
118512.29679834179
122257.52859365795
100240.94410657226
100341.287150663
100522.47224286503
100811.484377926
101244.70745645551
101866.9771339185
102729.79009443807
103887.39176991304
105392.44293792757
107288.75528945395
109603.86268324693
112339.08675590696
115457.89288801016
118853.92933263569
100281.4146703993
100393.56620637495
100594.5027421335
100911.32595316437
101380.43289738052
102046.17888495396
102958.62353343645
104169.4593797689
105727.20798564983
107668.98414231499
110012.07763979505
112739.10202798706
115766.70176202718
100325.25204937428
100449.34929289293
100670.16029407499
101014.55772992173
101518.58422752317
102225.84216010751
103184.5126914522
104443.25768342766
106044.87889540412
108017.62391732367
110360.39072417899
113013.05101624051
100372.2089820165
100508.23277442319
100748.78818530153
101120.18687290265
101657.87749651412
102404.18077752175
103404.91138043928
104704.34662112864
106337.19298471561
108315.48702767433
110599.18539267707
100421.97000158556
100569.77653074288
100829.73342027438
101227.29698345205
101796.89981674176
102579.0334898952
103616.05020065335
104945.54466699963
106587.88708317473
108520.04094954129
100474.18664705874
100633.4773053367
100912.2644644901
101334.77154711117
101933.90288350756
102747.28340681242
103811.80966122085
105152.67749329767
106759.7798857321
100528.44244406601
100698.76245709388
100995.52654097635
101441.19090504425
102066.26448918246
102903.89147650352
103980.40415114339
105294.92684865066
100584.24719268148
100764.94789846097
101078.34214502011
101544.52583459661
102189.91290161722
103039.10016245393
104096.315743213
100641.02550359619
100831.12370047075
101159.1809119144
101641.44193291452
102297.11130989998
103132.19984085651
100697.98816143414
100895.94126952495
101235.24744647476
101725.61012301246
102370.98144322322
100753.95692607292
100957.18483120388
101301.56357001895
101783.84060919365
100806.99141469428
101010.77472963436
101347.49041403389
100853.47341906605
101047.93999783401
100885.7872273127
SCALARS T float 1
LOOKUP_TABLE default
300.0268450795745
300.0266331434888
300.04095203674626
300.02565351062884
300.0407431109696
300.06597829128714
300.0240581287296
300.03926240411903
300.06577081128535
300.10912222704684
300.0220064244389
300.03678758466634
300.0633393421851
300.1089212747424
300.1822930742489
300.0196618475657
300.03359461583506
300.05920365913386
300.10472026631726
300.1821029112184
300.30532371807635
300.017180019426
300.02995470021307
300.05387443448046
300.0975191127084
300.1745978076709
300.3050630895638
300.51170552629264
300.01469715359815
300.0261178854899
300.047838421329
300.08829635576456
300.1617608039947
300.2912617798863
300.5108055333283
300.85940998038666
300.0123222874165
300.02229723518275
300.04152841750283
300.0779565668467
300.1455101874058
300.26798635856045
300.4845730149872
300.8552302220917
301.45305709677524
300.010134184075
300.0186591875859
300.0352995395706
300.0672716077901
300.1275514058618
300.23906585678503
300.4416714581297
300.8032522598199
301.4348698700167
302.4943063742917
300.00818217930527
300.01532093665895
300.02941823897464
300.056845960731
300.1092669956725
300.207722003792
300.38983744634015
300.72269914187956
301.3264895056199
302.42033749348565
304.41194475240076
300.00648976670453
300.01235347569724
300.02406370526876
300.0471108637096
300.0916809072646
300.17640337124453
300.3351006012873
300.6292426819949
301.1721209559358
302.18105824957513
304.1177463611562
308.24412033148104
300.00505970433176
300.00978833654966
300.01933735591393
300.03833773528254
300.0754763134631
300.1467975858095
300.28167536850646
300.5338663084882
301.0029112012314
301.87946986071796
303.5601887221167
307.0530861063117
316.8671055999375
300.0038795097422
300.0076260726155
300.01527703895727
300.03066468298607
300.06104798667644
300.1199389141838
300.23220395559696
300.44342206601294
300.8376362635629
301.5732049987799
302.9645778167592
305.71410496413404
311.8359587561391
324.2987745922503
300.0029266792566
300.0058449536892
300.0118726782687
300.02412625571145
300.04856309736164
300.09635006660733
300.18812010999903
300.3616813903424
300.686276251788
301.28997416994406
302.416103265801
304.5539646868565
308.7803029157452
316.9601782832461
329.7544366779457
300.0021731903391
300.0044089230445
300.0090810721896
300.0186827680619
300.0380236356879
300.07618198196917
300.1499959790914
300.29031046415
300.55325133895553
301.04093956726706
301.9407066735696
303.60223961189837
306.6850255641822
312.3533474764459
321.60244339604725
333.9436878174266
300.0015890414406
300.00327434118356
300.0068387820779
300.0142461667562
300.0293204563919
300.05933226397445
300.11782663403704
300.2296285616587
300.4396904456251
300.8287630625267
301.5411819278217
302.83328917610766
305.14785754124586
309.25381626148567
315.99766528409
325.60150507618835
337.2266563921882
300.0011448578696
300.00239515509276
300.00507258522595
300.0107009281451
300.0222765195177
300.0455414779212
300.0912500854625
300.1791476921731
300.3448882033995
300.6519447753511
301.2117225948828
302.2158331021037
303.97936779407183
307.0403504167897
312.05805500729696
319.447945118011
328.98528108614744
339.8189823476831
300.0008136509616
300.00172666763996
300.0037072496345