# vtk DataFile Version 2.0
JuliaCFD
ASCII
DATASET UNSTRUCTURED_GRID

POINTS 1900 float
0.0 0.0 0.005
0.0 0.0416667 0.005
0.0 0.0833333 0.005
0.0 0.125 0.005
0.0 0.166667 0.005
0.0 0.208333 0.005
0.0 0.25 0.005
0.0 0.291667 0.005
0.0 0.333333 0.005
0.0 0.375 0.005
0.0 0.416667 0.005
0.0 0.458333 0.005
0.0 0.5 0.005
0.0 0.541667 0.005
0.0 0.583333 0.005
0.0 0.625 0.005
0.0 0.666667 0.005
0.0 0.708333 0.005
0.0 0.75 0.005
0.0 0.791667 0.005
0.0 0.833333 0.005
0.0 0.875 0.005
0.0 0.916667 0.005
0.0 0.958333 0.005
0.0 1.0 0.005
0.0409575 0.0 0.005
0.0409401 0.0416667 0.005
0.0409227 0.0833333 0.005
0.0409054 0.125 0.005
0.040888 0.166667 0.005
0.0408706 0.208333 0.005
0.0408532 0.25 0.005
0.0408359 0.291667 0.005
0.0408185 0.333333 0.005
0.0408011 0.375 0.005
0.0407838 0.416667 0.005
0.0407664 0.458333 0.005
0.040749 0.5 0.005
0.0407316 0.541667 0.005
0.0407143 0.583333 0.005
0.0406969 0.625 0.005
0.0406795 0.666667 0.005
0.0406621 0.708333 0.005
0.0406448 0.75 0.005
0.0406274 0.791667 0.005
0.04061 0.833333 0.005
0.0405927 0.875 0.005
0.0405753 0.916667 0.005
0.0405579 0.958333 0.005
0.0405405 1.0 0.005
0.0819149 0.0 0.005
0.0818802 0.0416667 0.005
0.0818455 0.0833333 0.005
0.0818107 0.125 0.005
0.081776 0.166667 0.005
0.0817412 0.208333 0.005
0.0817065 0.25 0.005
0.0816717 0.291667 0.005
0.081637 0.333333 0.005
0.0816022 0.375 0.005
0.0815675 0.416667 0.005
0.0815328 0.458333 0.005
0.081498 0.5 0.005
0.0814633 0.541667 0.005
0.0814285 0.583333 0.005
0.0813938 0.625 0.005
0.081359 0.666667 0.005
0.0813243 0.708333 0.005
0.0812895 0.75 0.005
0.0812548 0.791667 0.005
0.0812201 0.833333 0.005
0.0811853 0.875 0.005
0.0811506 0.916667 0.005
0.0811158 0.958333 0.005
0.0810811 1.0 0.005
0.122872 0.0 0.005
0.12282 0.0416667 0.005
0.122768 0.0833333 0.005
0.122716 0.125 0.005
0.122664 0.166667 0.005
0.122612 0.208333 0.005
0.12256 0.25 0.005
0.122508 0.291667 0.005
0.122455 0.333333 0.005
0.122403 0.375 0.005
0.122351 0.416667 0.005
0.122299 0.458333 0.005
0.122247 0.5 0.005
0.122195 0.541667 0.005
0.122143 0.583333 0.005
0.122091 0.625 0.005
0.122039 0.666667 0.005
0.121986 0.708333 0.005
0.121934 0.75 0.005
0.121882 0.791667 0.005
0.12183 0.833333 0.005
0.121778 0.875 0.005
0.121726 0.916667 0.005
0.121674 0.958333 0.005
0.121622 1.0 0.005
0.16383 0.0 0.005
0.16376 0.0416667 0.005
0.163691 0.0833333 0.005
0.163621 0.125 0.005
0.163552 0.166667 0.005
0.163482 0.208333 0.005
0.163413 0.25 0.005
0.163343 0.291667 0.005
0.163274 0.333333 0.005
0.163204 0.375 0.005
0.163135 0.416667 0.005
0.163066 0.458333 0.005
0.162996 0.5 0.005
0.162927 0.541667 0.005
0.162857 0.583333 0.005
0.162788 0.625 0.005
0.162718 0.666667 0.005
0.162649 0.708333 0.005
0.162579 0.75 0.005
0.16251 0.791667 0.005
0.16244 0.833333 0.005
0.162371 0.875 0.005
0.162301 0.916667 0.005
0.162232 0.958333 0.005
0.162162 1.0 0.005
0.204787 0.0 0.005
0.2047 0.0416667 0.005
0.204614 0.0833333 0.005
0.204527 0.125 0.005
0.20444 0.166667 0.005
0.204353 0.208333 0.005
0.204266 0.25 0.005
0.204179 0.291667 0.005
0.204092 0.333333 0.005
0.204006 0.375 0.005
0.203919 0.416667 0.005
0.203832 0.458333 0.005
0.203745 0.5 0.005
0.203658 0.541667 0.005
0.203571 0.583333 0.005
0.203484 0.625 0.005
0.203398 0.666667 0.005
0.203311 0.708333 0.005
0.203224 0.75 0.005
0.203137 0.791667 0.005
0.20305 0.833333 0.005
0.202963 0.875 0.005
0.202876 0.916667 0.005
0.20279 0.958333 0.005
0.202703 1.0 0.005
0.245745 0.0 0.005
0.245641 0.0416667 0.005
0.245536 0.0833333 0.005
0.245432 0.125 0.005
0.245328 0.166667 0.005
0.245224 0.208333 0.005
0.245119 0.25 0.005
0.245015 0.291667 0.005
0.244911 0.333333 0.005
0.244807 0.375 0.005
0.244703 0.416667 0.005
0.244598 0.458333 0.005
0.244494 0.5 0.005
0.24439 0.541667 0.005
0.244286 0.583333 0.005
0.244181 0.625 0.005
0.244077 0.666667 0.005
0.243973 0.708333 0.005
0.243869 0.75 0.005
0.243764 0.791667 0.005
0.24366 0.833333 0.005
0.243556 0.875 0.005
0.243452 0.916667 0.005
0.243347 0.958333 0.005
0.243243 1.0 0.005
0.286702 0.0 0.005
0.286581 0.0416667 0.005
0.286459 0.0833333 0.005
0.286337 0.125 0.005
0.286216 0.166667 0.005
0.286094 0.208333 0.005
0.285973 0.25 0.005
0.285851 0.291667 0.005
0.285729 0.333333 0.005
0.285608 0.375 0.005
0.285486 0.416667 0.005
0.285365 0.458333 0.005
0.285243 0.5 0.005
0.285121 0.541667 0.005
0.285 0.583333 0.005
0.284878 0.625 0.005
0.284757 0.666667 0.005
0.284635 0.708333 0.005
0.284513 0.75 0.005
0.284392 0.791667 0.005
0.28427 0.833333 0.005
0.284149 0.875 0.005
0.284027 0.916667 0.005
0.283905 0.958333 0.005
0.283784 1.0 0.005
0.32766 0.0 0.005
0.327521 0.0416667 0.005
0.327382 0.0833333 0.005
0.327243 0.125 0.005
0.327104 0.166667 0.005
0.326965 0.208333 0.005
0.326826 0.25 0.005
0.326687 0.291667 0.005
0.326548 0.333333 0.005
0.326409 0.375 0.005
0.32627 0.416667 0.005
0.326131 0.458333 0.005
0.325992 0.5 0.005
0.325853 0.541667 0.005
0.325714 0.583333 0.005
0.325575 0.625 0.005
0.325436 0.666667 0.005
0.325297 0.708333 0.005
0.325158 0.75 0.005
0.325019 0.791667 0.005
0.32488 0.833333 0.005
0.324741 0.875 0.005
0.324602 0.916667 0.005
0.324463 0.958333 0.005
0.324324 1.0 0.005
0.368617 0.0 0.005
0.368461 0.0416667 0.005
0.368305 0.0833333 0.005
0.368148 0.125 0.005
0.367992 0.166667 0.005
0.367835 0.208333 0.005
0.367679 0.25 0.005
0.367523 0.291667 0.005
0.367366 0.333333 0.005
0.36721 0.375 0.005
0.367054 0.416667 0.005
0.366897 0.458333 0.005
0.366741 0.5 0.005
0.366585 0.541667 0.005
0.366428 0.583333 0.005
0.366272 0.625 0.005
0.366116 0.666667 0.005
0.365959 0.708333 0.005
0.365803 0.75 0.005
0.365647 0.791667 0.005
0.36549 0.833333 0.005
0.365334 0.875 0.005
0.365178 0.916667 0.005
0.365021 0.958333 0.005
0.364865 1.0 0.005
0.409575 0.0 0.005
0.409401 0.0416667 0.005
0.409227 0.0833333 0.005
0.409054 0.125 0.005
0.40888 0.166667 0.005
0.408706 0.208333 0.005
0.408532 0.25 0.005
0.408359 0.291667 0.005
0.408185 0.333333 0.005
0.408011 0.375 0.005
0.407838 0.416667 0.005
0.407664 0.458333 0.005
0.40749 0.5 0.005
0.407316 0.541667 0.005
0.407143 0.583333 0.005
0.406969 0.625 0.005
0.406795 0.666667 0.005
0.406621 0.708333 0.005
0.406448 0.75 0.005
0.406274 0.791667 0.005
0.4061 0.833333 0.005
0.405927 0.875 0.005
0.405753 0.916667 0.005
0.405579 0.958333 0.005
0.405405 1.0 0.005
0.450532 0.0 0.005
0.450341 0.0416667 0.005
0.45015 0.0833333 0.005
0.449959 0.125 0.005
0.449768 0.166667 0.005
0.449577 0.208333 0.005
0.449386 0.25 0.005
0.449195 0.291667 0.005
0.449003 0.333333 0.005
0.448812 0.375 0.005
0.448621 0.416667 0.005
0.44843 0.458333 0.005
0.448239 0.5 0.005
0.448048 0.541667 0.005
0.447857 0.583333 0.005
0.447666 0.625 0.005
0.447475 0.666667 0.005
0.447284 0.708333 0.005
0.447093 0.75 0.005
0.446901 0.791667 0.005
0.44671 0.833333 0.005
0.446519 0.875 0.005
0.446328 0.916667 0.005
0.446137 0.958333 0.005
0.445946 1.0 0.005
0.49149 0.0 0.005
0.491281 0.0416667 0.005
0.491073 0.0833333 0.005
0.490864 0.125 0.005
0.490656 0.166667 0.005
0.490447 0.208333 0.005
0.490239 0.25 0.005
0.49003 0.291667 0.005
0.489822 0.333333 0.005
0.489613 0.375 0.005
0.489405 0.416667 0.005
0.489197 0.458333 0.005
0.488988 0.5 0.005
0.48878 0.541667 0.005
0.488571 0.583333 0.005
0.488363 0.625 0.005
0.488154 0.666667 0.005
0.487946 0.708333 0.005
0.487737 0.75 0.005
0.487529 0.791667 0.005
0.48732 0.833333 0.005
0.487112 0.875 0.005
0.486903 0.916667 0.005
0.486695 0.958333 0.005
0.486486 1.0 0.005
0.531954 0.00563435 0.005
0.531749 0.0470663 0.005
0.531544 0.0884982 0.005
0.531338 0.12993 0.005
0.531133 0.171362 0.005
0.530928 0.212794 0.005
0.530722 0.254226 0.005
0.530517 0.295658 0.005
0.530312 0.33709 0.005
0.530107 0.378521 0.005
0.529901 0.419953 0.005
0.529696 0.461385 0.005
0.529491 0.502817 0.005
0.529285 0.544249 0.005
0.52908 0.585681 0.005
0.528875 0.627113 0.005
0.528669 0.668545 0.005
0.528464 0.709977 0.005
0.528259 0.751409 0.005
0.528054 0.79284 0.005
0.527848 0.834272 0.005
0.527643 0.875704 0.005
0.527438 0.917136 0.005
0.527232 0.958568 0.005
0.527027 1.0 0.005
0.572289 0.0127465 0.005
0.572093 0.0538821 0.005
0.571896 0.0950177 0.005
0.571699 0.136153 0.005
0.571502 0.177289 0.005
0.571306 0.218424 0.005
0.571109 0.25956 0.005
0.570912 0.300695 0.005
0.570715 0.341831 0.005
0.570519 0.382967 0.005
0.570322 0.424102 0.005
0.570125 0.465238 0.005
0.569928 0.506373 0.005
0.569732 0.547509 0.005
0.569535 0.588644 0.005
0.569338 0.62978 0.005
0.569142 0.670916 0.005
0.568945 0.712051 0.005
0.568748 0.753187 0.005
0.568551 0.794322 0.005
0.568355 0.835458 0.005
0.568158 0.876593 0.005
0.567961 0.917729 0.005
0.567764 0.958864 0.005
0.567568 1.0 0.005
0.612625 0.0198587 0.005
0.612436 0.0606979 0.005
0.612248 0.101537 0.005
0.61206 0.142376 0.005
0.611872 0.183216 0.005
0.611684 0.224055 0.005
0.611496 0.264894 0.005
0.611307 0.305733 0.005
0.611119 0.346572 0.005
0.610931 0.387412 0.005
0.610743 0.428251 0.005
0.610555 0.46909 0.005
0.610366 0.509929 0.005
0.610178 0.550769 0.005
0.60999 0.591608 0.005
0.609802 0.632447 0.005
0.609614 0.673286 0.005
0.609425 0.714125 0.005
0.609237 0.754965 0.005
0.609049 0.795804 0.005
0.608861 0.836643 0.005
0.608673 0.877482 0.005
0.608484 0.918322 0.005
0.608296 0.959161 0.005
0.608108 1.0 0.005
0.65296 0.0269708 0.005
0.65278 0.0675137 0.005
0.652601 0.108057 0.005
0.652421 0.148599 0.005
0.652241 0.189142 0.005
0.652062 0.229685 0.005
0.651882 0.270228 0.005
0.651702 0.310771 0.005
0.651523 0.351314 0.005
0.651343 0.391857 0.005
0.651164 0.4324 0.005
0.650984 0.472943 0.005
0.650804 0.513485 0.005
0.650625 0.554028 0.005
0.650445 0.594571 0.005
0.650265 0.635114 0.005
0.650086 0.675657 0.005
0.649906 0.7162 0.005
0.649726 0.756743 0.005
0.649547 0.797286 0.005
0.649367 0.837828 0.005
0.649188 0.878371 0.005
0.649008 0.918914 0.005
0.648828 0.959457 0.005
0.648649 1.0 0.005
0.693295 0.034083 0.005
0.693124 0.0743295 0.005
0.692953 0.114576 0.005
0.692782 0.154823 0.005
0.692611 0.195069 0.005
0.69244 0.235316 0.005
0.692269 0.275562 0.005
0.692098 0.315809 0.005
0.691926 0.356055 0.005
0.691755 0.396302 0.005
0.691584 0.436548 0.005
[...]
CELL_DATA 888
SCALARS P float 1
LOOKUP_TABLE default
100108.67938627482
100108.35836288238
100154.58574471636
100106.20813999481
100154.45143376476
100223.51815468833
100102.52992487671
100151.44423628146
100223.72312471457
100327.01958589879
100097.61238802767
100146.10777258915
100219.30666336142
100327.80828065248
100482.56901232935
100091.74744279502
100138.93131652458
100211.22302835567
100321.02413676683
100484.34122492626
100716.94713661955
100085.22265212373
100130.38351649433
100200.32647582279
100308.35207807944
100473.47724608309
100720.29769603192
101072.00918563822
100078.3077779149
100120.90816032901
100187.41071164906
100291.31550356185
100453.03204104747
100702.1554573694
101077.54392639601
101615.40918890559
100071.24289589058
100110.90920954307
100173.1990622635
100271.29704107244
100425.78546398935
100668.28081170717
101045.77506227887
101622.52295873276
102463.05278992679
100064.2309546508
100100.73753560169
100158.32482507502
100249.50842733066
100394.18929279796
100623.87612514371
100988.11162086774
101563.60287179523
102464.32501049398
103833.38704210825
100057.4349655012
100090.68345502084
100143.31730422786
100226.96310015961
100360.29382920403
100573.33097973999
100914.50861825385
101462.51095461805
102347.15227256935
103790.86127671048
106201.68474585279
100050.97889595493
100080.97545909134
100128.59863519183
100204.4698732584
100325.72636654782
100520.10738096263
100832.82592971185
101338.56269004615
102164.07680191813
103538.44868960723
105943.91877693226
110815.57472125445
100044.95122770657
100071.78380163401
100114.48863010267
100182.64139298284
100291.71070726949
100466.77826855218
100748.80710757613
101205.60164517033
101952.32113416893
103195.49809904122
105354.43954492884
109554.24359795183
121736.97391370469
100039.40989399131
100063.22710565611
100101.21575603882
100161.91799594522
100259.12061149336
100415.14860837358
100666.3792726526
101072.74962098413
101735.05178980243
102829.70731774034
104693.0084417772
108092.92989400242
115507.15347491858
131822.1014474595
100034.38784107557
100055.38051491142
100088.93109412483
100142.59468619236
100228.5383458269
100366.40544543815
100588.05971719138
100945.60940533032
101525.51538524583
102475.12627811295
104059.26147799489
106806.83587093317
111971.56077581846
122149.01648807086
139663.58589562518
100029.89863809964
100048.28416145353
100077.72288980855
100124.84953290595
100200.31842306761
100321.26530046327
100515.33129418397
100827.34083536844
101330.6516809824
102147.26221288614
103486.21120377748
105725.83999819608
109604.43625912603
116582.31888494379
128468.4266518795
145963.00381757243
100025.94167083419
100041.95154249472
100067.6305596686
100108.77066915696
100174.64319499188
100280.09718244777
100448.94676855243
100719.48603370358
101153.584371864
101852.00886059948
102981.17254130186
104822.1718341985
107860.52868661255
112995.35589850717
121448.53297663359
134179.26274685387
151095.45767083872
100022.50684793823
100036.37688328746
100058.6575250663
100094.37899828675
100151.56787119604
100243.02565799122
100389.16655545132
100622.55656155213
100995.21064461899
101590.39352121257
102541.8128906503
104064.86159098659
106504.25932742057
110463.45502661663
116773.69680994545
126245.8279316026
139233.3613520298
155290.56740341455
100019.57882098526
100031.54180542906
100050.78217114974
100081.648753817
100131.06047375996
100210.00791054383
100335.92512493601
100536.42211896185
100855.16371775683
101361.05152175143
102162.42183719981
103428.18438534385
105416.13067937114
108560.10221701856
113451.56324379472
120721.59748438306
130799.9359961037
143654.79199987013
158707.23128980587
100017.14066563234
100027.42117814386
100043.96717442966
100070.52312588636
100113.0305151083
100180.89367735224
100288.95720839314
100460.58198202997
100732.39557225919
101161.52928927542
101836.37743251395
102891.66949509789
104527.03373510274
107070.0737746934
110962.46337636648
116696.73566229285
124673.53373268768
135021.8149481156
147487.51021581705
161465.56048489333
100015.17742878827
100023.98827236495
100038.16788846205
100060.92826735362
100097.35417470825
100155.46869234004
100247.88266923348
100394.33280160987
100625.53619940193
100988.95955946617
101557.13673959461
102438.89097206005
103792.47054149958
105873.67702021507
109025.38245052408
113641.34023508392
120076.33209043754
128513.78512655404
138871.17549989338
150780.22869924884
163661.35505859274
100013.67996966478
100021.21978517537
100033.33927329216
100052.7836185364
100083.89073018245
100133.4875194552
100212.26625272332
100336.88110933293
100533.09711965847
100840.41929835513
101318.64956347457
102056.50252941938
103181.48592321987
104897.71458535665
107478.82200047106
111247.06264279141
116515.07816144265
123486.0701906808
132165.1605445137
142334.8468384924
153581.30466930656
165374.42757572443
100012.64987554755
100019.1016280706
100029.443059198
100046.01237333384
100072.4990059984
100114.69755442836
100181.65790255753
100287.41983463353
100453.59532949918
100713.11909490869
101115.48407926518
101733.51755187409
102671.13565991365
104093.58068195572
106223.26591461961
109328.23569647358
113684.89616881534
119502.79283300725
126843.08561776848
135578.90714891476
145415.58525927406
155937.3512447642
166673.3787111171
100012.1074863483
100017.63690406346
100026.45628999689
100040.55077774549
100063.04894209257
100098.85739888574
100155.62215056071
100245.16890422562
100385.62836217908
100604.49519838659
100942.85566283487
101460.817650201
102243.76718162351
103426.8198469143
105192.7801628517
107766.912051526
111393.64498382439
116281.30475299126
122530.82571685484
130084.2531892201
138726.11053680748
148126.33460449448
157892.88770917806
167618.50331612866
100016.8594273193
100024.38346563572
100036.36050484618
100055.43542460706
100085.75237909718
100133.75980579089
100209.40925325413
100327.91059183859
100512.24159808864
100796.59488820838
101230.79600580971
101885.43348036306
102871.70822342715
104341.02552625781
106483.65929957006
109515.12670388489
113636.99442666625
118977.5743176171
125536.14142662949
133163.46606132333
141591.84954543863
150485.196839359
159490.17372661264
168260.70060416785
100023.27740068498
100033.4462024484
100049.59414875194
100075.21155215339
100115.7261429204
100179.5021558704
100279.29642951331
100434.3287834867
100673.11184543971
101037.08088581552
101584.8713931249
102408.434818095
103633.77304779131
105421.97702132286
107962.21247614075
111444.84589959374
116014.82758657986
121717.93566878639
128466.66502753813
136048.4138293
144171.73835930508
152514.4895287641
160768.6228566963
168647.59219789898
100031.88598604825
100045.52713472674
100067.12926256093
100101.24911095064
100154.90670083568
100238.79618727225
100369.00133318765
100569.33493390364
100874.3463950802
101332.91469141116
102021.34524794377
103044.81407707528
104539.83786551694
106671.59171076113
109616.27498780964
113526.09526788608
118481.93824310256
124452.25101574289
131281.35774294726
138718.28721441934
146468.91561112803
154238.41291440485
161766.40696115117
168816.91794937922
100043.34523145678
100061.49946463558
100090.15910645462
100135.20297493179
100205.58733764656
100314.77258190217
100482.66777289628
100738.13787295074
101122.04610638025
101697.87508964882
102553.60453475008
103804.94921549704
105595.3900539363
108085.28372885272
111426.73274998229
115724.47284456552
120994.1113682586
127136.96532026285
133948.8504972876
141161.4542292714
148492.40851355743
155682.88293957443
162516.0197048756
168806.58828359237
100058.47498851444
100082.43367004317
100120.1253210439
100179.03672860682
100270.42693880148
100410.95014966556
100624.75811908986
100946.0873204032
101427.8458416161
102143.75331342118
103191.86534060226
104696.22904603087
106800.87351289888
109652.32150054905
113369.1565366321
118003.7342849261
123510.10047621535
129735.91837419843
136446.73107433686
143373.58787338913
150255.53123793204
156873.37919376898
163051.94507322263
168646.85247984913
100078.2794209814
100109.623456322
100158.7420738678
100235.03826754805
100352.44088479152
100531.17404212854
100799.96654622235
101202.98522306781
101802.04999387714
102680.21258407635
103944.3373014755
105722.33256267506
108151.64747734196
111356.56644169148
115415.5292645402
120327.63805933938
125993.03874560577
132220.0410215477
138760.1585996961
145355.34268172225
151774.18201102052
157835.24787300068
163402.33308966283
168370.43306139627
100103.9718284267
100144.60878121728
100208.01430988921
100305.8218914423
100454.96811087537
100679.57709642654
101016.55458689241
101517.77716861332
102253.54563910744
103315.63038328366
104816.63116252582
106882.90733683232
109638.25291456604
113177.66394320669
117535.89186565935
122661.65403922492
128411.00259442026
134567.0928894708
140880.83089822318
147113.31082120686
153066.28472519142
158594.37104617798
163597.32942353733
168000.1018215001
100136.99735001456
100189.19641927496
100270.24876740926
100394.31783803971
100581.66322990814
100863.12467869486
101282.24851117302
101898.5080638575
102790.4948358845
104056.62482995761
105811.25744285727
108173.4873749183
111246.87992123868
115092.19708253787
119699.85561229441
124973.9345102699
130737.42886187298
136761.51374174264
142805.84100858835
148656.79173435256
154150.76925399614
159176.23614729807
163663.3999235955
167568.36298597537
100179.05489465113
100245.47737534097
100348.06075742478
100503.78857075833
100738.42021394639
101088.49026672961
101604.26340923847
102352.87611336022
103419.8722566346
104907.49604434126
106927.38715048615
109585.6412931105
112960.23417038657
117074.90168171599
121877.91370784972
127236.40187702517
132951.27046778446
138792.20766032243
144536.49491516344
149999.01480604976
155048.58964575507
159605.84178500046
163628.49033867594
167098.12060911325
100232.11687923613
100315.84329168634
100444.40301063763
100639.26468261071
100931.02098315077
101362.09700133154
101989.7051051972
102887.84572053228
104147.0419261536
105869.9573812328
108160.79436948735
111107.44280610443
114758.37444635361
119099.86627145768
124042.45028619975
129424.49979156173
135036.59896000012
140654.82028314474
146078.74793435307
151154.1254496503
155780.6816702406
159907.79181268704
163519.7154532167
166622.2383755167
100298.45254588676
100403.02768923143
100563.63500743029
100805.77906806809
101165.1643230273
101690.41766616577
102445.26368716171
103509.23928058265
104975.36507112515
106942.91699865581
109503.96252183465
112723.93682388194
116619.67757153635
121141.54071729122
126168.47199264826
131519.13696422285
136981.63705610734
142347.19498755413
147440.77772478826
152137.94973662603
156368.95659224028
160108.91677953754
163367.23201234033
166176.55167227375
100380.6746297055
100510.90608023759
100710.19158910721
101008.40266364203
101446.70546626329
102079.74012243716
102976.90521454903
104221.46258561265
105905.96607511985
108122.35358089735
110946.4102497615
114417.93289223031
118521.64103847704
123175.63473565504
128233.53631162844
133504.0927160073
138780.12837445727
143872.15508898423
148633.40872756037
152968.579643397
156835.7572681863
160235.967249165
163203.45271809804
165813.6384218429
100482.39228586559
100643.48372522499
100888.62644418678
101252.42263173692
101781.46084700478
102535.9013150452
103589.54249814918
105027.15129029645
106937.54720113933
109401.54299712458
112475.03202018257
116170.59835296372
120441.97529753878
125179.39321703519
130219.31504092038
135367.14851886936
140427.7452029455
145235.00778154988
149669.2938654213
153664.4042269836
157204.95044750534
160317.2063145483
163067.1477936727
165590.13176404923
100607.36259589373
100804.92752256
101103.74285624684
101543.18984989166
102175.01732285434
103064.02559168465
104286.76986026489
105926.9535152208
108066.33654923833
110771.08091353519
114074.72667747109
117961.86831037188
122358.54921853275
127132.64260097891
132110.0862022852
137100.27272488744
141924.87315313207
146442.9181439624
150562.1232941362
154244.19151410906
157499.06464832407
160378.77476010297
162991.31236959022
100759.53482915305
100999.6629057091
101360.46447426974
101885.95330368308
102632.46945208682
103668.26097344604
105070.64007028623
106919.41331885455
109286.12515959551
112219.35117278129
115728.78801207549
119772.27853243002
124251.05649173012
129017.38446222934
133893.41413319492
138697.94445854655
143273.15581283532
147503.63510457712
151325.11628063692
154724.56428408864
157734.0317092897
160432.00367730687
100943.11527612653
101232.27975732875
101663.70337566972
102285.66444659188
103158.20382250477
104351.5194259975
105941.37729609794
108000.90720242201
110588.46287652242
113732.88135095606
117419.58164210695
121581.58732581571
126100.18718522176
130818.12454907071
135559.13572396856
140156.65073065035
144475.3514231182
148425.93182166605
151968.43093392174
155111.41794680269
157900.0006325493
101162.48578258757
101507.39971852899
102018.192908722
102746.75513201355
103755.68269902977
105115.268967206
106897.34742628377
109165.58458264999
111962.54482527611
115296.28106080207
119128.38920374471
123370.16175825638
127888.27037331148
132520.740713049
137098.7796637134
141473.85343168842
145533.34375616902
149211.9908197476
152489.08420328694
155375.89248276374
101422.09689454717
101829.54316804606
102428.30104585175
103272.94294396482
104427.19304534882
105959.38940894527
107934.94688139856
110405.60867218989
113396.26272956627
116893.37046890949
120836.86181747052
125119.6660358134
129598.74072047896
134112.49891892838
138504.5734919768
142644.82128617467
146443.11452816552
149849.28136559838
152839.63760911237
101726.32121089236
102202.9680094692
102897.8392673991
103867.03937861555
105173.66337814847
106881.98122901745
109048.56415418429
111710.84512942786
114875.34744491814
118507.08471298515
122526.00637963793
126811.6784122783
131215.46412710182
135581.0062594619
139766.24752310783
143658.85563936335
147181.7382511221
150275.00301499513
102079.32298100754
102631.48594027256
103429.89137661114
104530.69642748372
105994.53664423215
107879.33425579312
110230.46905912452
113069.66769818008
116383.96260100296
120118.39485447532
124176.65174064622
128427.41138164942
132721.36008096367
136910.39002352845
140865.87879409367
144484.36970481937
147672.4191337245
102484.88789530791
103118.28467071458
104026.5636901368
105264.25142622096
106887.4214575227
108945.5913164825
111471.02270117759
114468.25736593605
117905.06757467068
121708.69944415626
125768.17336108212
129946.38145503802
134095.61887157024
138075.8760668663
141762.3641956665
145029.5497846452
102946.23325674802
103665.74804821944
104688.84266009304
106066.58380502695
107848.44208024704
110073.15284679714
112758.41052413058
115890.84353086045
119419.70115322583
123255.72653907114
127277.16151740424
131343.1343652878
135307.5178188235
139028.41704154367
142352.63475696382
103465.84047053165
104275.23311647728
105416.41317087553
106934.86286064227
108871.35038874073
111251.96591762255
114078.57925660338
117319.30753499808
120906.090910256
124735.14174185814
128675.83373151002
132581.7479489666
136300.43466096953
139654.00736093597
104045.26460762418
104946.90194352868
106207.23263049862
107864.1893240457
109947.71029183966
112469.58200855118
115414.41973215413
118732.39720356837
122338.7556670012
126115.87272313553
129922.79066124413
133600.01432974476
136951.47744339908
104684.88081644509
105679.44138860938
107057.75221127173
108847.88790607583
111066.75527082446
113710.50635074299
116745.57982055045
120104.3394891585
123684.63582326433
127353.93954704446
130950.68470098724
134266.73538654865
105383.75311557468
106469.83886958519
107962.00862224928
109876.14681300038
112214.43972781264
114955.49034100262
118046.82004227773
121401.62513950137
124897.88394616482
128377.36474225538
131623.8054697123
106139.24271063322
107313.10867603062
108911.70524484082
110936.52591558368
113372.82244786089
116179.93102210051
119284.55961555586
122577.08091872309
125904.51016237798
129047.92717621058
106946.80269158493
108201.75031084401
109895.39372036191
112012.29578793776
114518.38467102815
117350.85032960708
120411.32393819928
123554.94531595375
126563.70519221653
107799.39679565119
109125.18835459914
110897.57764055599
113081.08699653324
115618.92149363436
118421.38658092936
121351.58042408893
124195.87836849575
108686.9244184074
110068.83502949533
111896.93605474259
114112.26991834227
116628.86180018494
119317.13716819558
121968.27384987986
109595.40935215086
111012.56952420788
112864.47866574582
115061.59314482269
117476.35570552124
119905.06339280424
110505.37450779045
111928.19839236065
113757.31944800242
115859.50346262066
118032.76225816684
111389.37962669317
112774.76343966254
114509.11372195695
116383.91759386529
112207.49171435076
113488.41586372373
115003.07062034796
112897.37289551907
113957.17683774649
113350.56434768693
SCALARS T float 1
LOOKUP_TABLE default
300.09380928324066
300.09351632256244
300.1338123337364
300.091640307514
300.1336597570243
300.1942185211978
300.0884419693681
300.1310133940577
300.1943131508801
300.28558024633185
300.0841723402078
300.12634485218445
300.1903800596564
300.2860781306005
300.4241693334433
300.0790855914887
300.1200813475308
300.1832505023527
300.27994231230275
300.4252924474237
300.63544107615303
300.07343193830314
300.1126330224074
300.17367467806827
300.26864945888747
300.4152774237094
300.63742322207344
300.96004908244777
300.06744571398696
300.1043880227909
300.162351624195
300.25354745519945
300.3968236617588
300.620323229733
300.96276733209294
301.4649053588873
300.0613349930205
300.09569886561724
300.1499178470329
300.2358632975347
300.37241327689907
300.58928370211254
300.9321052204832
301.46632164996146
302.2653524580032
300.0552751957057
300.08687075118235
300.13692888257884
300.2166706901129
300.3442410603385
300.5489983494226
300.878369650205
301.4082006432901
302.25546491718126
303.57476720928696
300.0494067749896
300.0781552117931
300.1238469048551
300.1968636291992
300.31413745530045
300.5034336046094
300.8106401447355
301.31235742668537
302.13820148175796
303.51245237937803
305.8316823006973
300.0438361350424
300.0697492878071
300.1110383883898
300.17715093302456
300.28354600360564
300.4557037200333
300.73608449233353
301.1965822610084
301.9620256142883
303.25980972358025
305.55258430567613
310.0734156294707
300.0386388482787
300.06179896112855
300.09877902201396
300.15806495721193
300.2535421140457
300.4081020123117
300.65990402962655
301.0735976661497
301.7614470377843
302.9270389298328
304.9748274014543
308.900696733835
319.1441666069566
300.03386403937213
300.05440517903406
300.0872639903843
300.139984184276
300.2248838917424
300.362215136402
300.58560764262893
300.9516992939749
301.5578543542203
302.57698485500106
304.33549673449994
307.53403877534925
314.1435910923464
327.01424650779444
300.02953927709115
300.04763115360726
300.07662074193377
300.1231584118586
300.1980676451523
300.31906578944756
300.5153969062122
300.83587932592775
301.363287902625
302.2411215545368
303.7272668727795
306.31648119677584
311.06195498318607
319.7443490912805
332.89470122104103
300.0256754763904
300.0415098643126
300.0669221052915
300.10773482831297
300.1733872906254
300.27925204122613
300.4505239868002
300.7288512865076
301.1838383828569
301.93342391458606
303.1811241490031
305.2870835375858
308.9010541274641
315.13454606057377
324.8656982174392
337.4954764124955
300.0222714138911
300.0360514156149
300.0581987709132
300.0937824616803
300.150985604182
300.24306276187167
300.391580779811
300.631839688663
301.02202463250586
301.65875600954496
302.7035094410336
304.4265563802697
307.27075777493707
311.9761637600866
319.2994452164324
329.3394704499342
341.1710219254219
300.0193178016907
300.0312494624979
300.050450614622
300.08131252047184
300.1308952526662
300.2105729943031
300.3387225665189
300.54513968841434
300.8783196210872
301.4174109762125
302.29142250823406
303.7082468788663
305.9900822920271
309.6635445368246
315.32538205695226
323.27842467675333
333.1863529339463
344.12948434067175
300.0168009262593
300.0270869947114
300.04365628535044