# vtk DataFile Version 2.0
JuliaCFD
ASCII
DATASET UNSTRUCTURED_GRID

POINTS 1900 float
0.0 0.0 0.005
0.0 0.0416667 0.005
0.0 0.0833333 0.005
0.0 0.125 0.005
0.0 0.166667 0.005
0.0 0.208333 0.005
0.0 0.25 0.005
0.0 0.291667 0.005
0.0 0.333333 0.005
0.0 0.375 0.005
0.0 0.416667 0.005
0.0 0.458333 0.005
0.0 0.5 0.005
0.0 0.541667 0.005
0.0 0.583333 0.005
0.0 0.625 0.005
0.0 0.666667 0.005
0.0 0.708333 0.005
0.0 0.75 0.005
0.0 0.791667 0.005
0.0 0.833333 0.005
0.0 0.875 0.005
0.0 0.916667 0.005
0.0 0.958333 0.005
0.0 1.0 0.005
0.0409575 0.0 0.005
0.0409401 0.0416667 0.005
0.0409227 0.0833333 0.005
0.0409054 0.125 0.005
0.040888 0.166667 0.005
0.0408706 0.208333 0.005
0.0408532 0.25 0.005
0.0408359 0.291667 0.005
0.0408185 0.333333 0.005
0.0408011 0.375 0.005
0.0407838 0.416667 0.005
0.0407664 0.458333 0.005
0.040749 0.5 0.005
0.0407316 0.541667 0.005
0.0407143 0.583333 0.005
0.0406969 0.625 0.005
0.0406795 0.666667 0.005
0.0406621 0.708333 0.005
0.0406448 0.75 0.005
0.0406274 0.791667 0.005
0.04061 0.833333 0.005
0.0405927 0.875 0.005
0.0405753 0.916667 0.005
0.0405579 0.958333 0.005
0.0405405 1.0 0.005
0.0819149 0.0 0.005
0.0818802 0.0416667 0.005
0.0818455 0.0833333 0.005
0.0818107 0.125 0.005
0.081776 0.166667 0.005
0.0817412 0.208333 0.005
0.0817065 0.25 0.005
0.0816717 0.291667 0.005
0.081637 0.333333 0.005
0.0816022 0.375 0.005
0.0815675 0.416667 0.005
0.0815328 0.458333 0.005
0.081498 0.5 0.005
0.0814633 0.541667 0.005
0.0814285 0.583333 0.005
0.0813938 0.625 0.005
0.081359 0.666667 0.005
0.0813243 0.708333 0.005
0.0812895 0.75 0.005
0.0812548 0.791667 0.005
0.0812201 0.833333 0.005
0.0811853 0.875 0.005
0.0811506 0.916667 0.005
0.0811158 0.958333 0.005
0.0810811 1.0 0.005
0.122872 0.0 0.005
0.12282 0.0416667 0.005
0.122768 0.0833333 0.005
0.122716 0.125 0.005
0.122664 0.166667 0.005
0.122612 0.208333 0.005
0.12256 0.25 0.005
0.122508 0.291667 0.005
0.122455 0.333333 0.005
0.122403 0.375 0.005
0.122351 0.416667 0.005
0.122299 0.458333 0.005
0.122247 0.5 0.005
0.122195 0.541667 0.005
0.122143 0.583333 0.005
0.122091 0.625 0.005
0.122039 0.666667 0.005
0.121986 0.708333 0.005
0.121934 0.75 0.005
0.121882 0.791667 0.005
0.12183 0.833333 0.005
0.121778 0.875 0.005
0.121726 0.916667 0.005
0.121674 0.958333 0.005
0.121622 1.0 0.005
0.16383 0.0 0.005
0.16376 0.0416667 0.005
0.163691 0.0833333 0.005
0.163621 0.125 0.005
0.163552 0.166667 0.005
0.163482 0.208333 0.005
0.163413 0.25 0.005
0.163343 0.291667 0.005
0.163274 0.333333 0.005
0.163204 0.375 0.005
0.163135 0.416667 0.005
0.163066 0.458333 0.005
0.162996 0.5 0.005
0.162927 0.541667 0.005
0.162857 0.583333 0.005
0.162788 0.625 0.005
0.162718 0.666667 0.005
0.162649 0.708333 0.005
0.162579 0.75 0.005
0.16251 0.791667 0.005
0.16244 0.833333 0.005
0.162371 0.875 0.005
0.162301 0.916667 0.005
0.162232 0.958333 0.005
0.162162 1.0 0.005
0.204787 0.0 0.005
0.2047 0.0416667 0.005
0.204614 0.0833333 0.005
0.204527 0.125 0.005
0.20444 0.166667 0.005
0.204353 0.208333 0.005
0.204266 0.25 0.005
0.204179 0.291667 0.005
0.204092 0.333333 0.005
0.204006 0.375 0.005
0.203919 0.416667 0.005
0.203832 0.458333 0.005
0.203745 0.5 0.005
0.203658 0.541667 0.005
0.203571 0.583333 0.005
0.203484 0.625 0.005
0.203398 0.666667 0.005
0.203311 0.708333 0.005
0.203224 0.75 0.005
0.203137 0.791667 0.005
0.20305 0.833333 0.005
0.202963 0.875 0.005
0.202876 0.916667 0.005
0.20279 0.958333 0.005
0.202703 1.0 0.005
0.245745 0.0 0.005
0.245641 0.0416667 0.005
0.245536 0.0833333 0.005
0.245432 0.125 0.005
0.245328 0.166667 0.005
0.245224 0.208333 0.005
0.245119 0.25 0.005
0.245015 0.291667 0.005
0.244911 0.333333 0.005
0.244807 0.375 0.005
0.244703 0.416667 0.005
0.244598 0.458333 0.005
0.244494 0.5 0.005
0.24439 0.541667 0.005
0.244286 0.583333 0.005
0.244181 0.625 0.005
0.244077 0.666667 0.005
0.243973 0.708333 0.005
0.243869 0.75 0.005
0.243764 0.791667 0.005
0.24366 0.833333 0.005
0.243556 0.875 0.005
0.243452 0.916667 0.005
0.243347 0.958333 0.005
0.243243 1.0 0.005
0.286702 0.0 0.005
0.286581 0.0416667 0.005
0.286459 0.0833333 0.005
0.286337 0.125 0.005
0.286216 0.166667 0.005
0.286094 0.208333 0.005
0.285973 0.25 0.005
0.285851 0.291667 0.005
0.285729 0.333333 0.005
0.285608 0.375 0.005
0.285486 0.416667 0.005
0.285365 0.458333 0.005
0.285243 0.5 0.005
0.285121 0.541667 0.005
0.285 0.583333 0.005
0.284878 0.625 0.005
0.284757 0.666667 0.005
0.284635 0.708333 0.005
0.284513 0.75 0.005
0.284392 0.791667 0.005
0.28427 0.833333 0.005
0.284149 0.875 0.005
0.284027 0.916667 0.005
0.283905 0.958333 0.005
0.283784 1.0 0.005
0.32766 0.0 0.005
0.327521 0.0416667 0.005
0.327382 0.0833333 0.005
0.327243 0.125 0.005
0.327104 0.166667 0.005
0.326965 0.208333 0.005
0.326826 0.25 0.005
0.326687 0.291667 0.005
0.326548 0.333333 0.005
0.326409 0.375 0.005
0.32627 0.416667 0.005
0.326131 0.458333 0.005
0.325992 0.5 0.005
0.325853 0.541667 0.005
0.325714 0.583333 0.005
0.325575 0.625 0.005
0.325436 0.666667 0.005
0.325297 0.708333 0.005
0.325158 0.75 0.005
0.325019 0.791667 0.005
0.32488 0.833333 0.005
0.324741 0.875 0.005
0.324602 0.916667 0.005
0.324463 0.958333 0.005
0.324324 1.0 0.005
0.368617 0.0 0.005
0.368461 0.0416667 0.005
0.368305 0.0833333 0.005
0.368148 0.125 0.005
0.367992 0.166667 0.005
0.367835 0.208333 0.005
0.367679 0.25 0.005
0.367523 0.291667 0.005
0.367366 0.333333 0.005
0.36721 0.375 0.005
0.367054 0.416667 0.005
0.366897 0.458333 0.005
0.366741 0.5 0.005
0.366585 0.541667 0.005
0.366428 0.583333 0.005
0.366272 0.625 0.005
0.366116 0.666667 0.005
0.365959 0.708333 0.005
0.365803 0.75 0.005
0.365647 0.791667 0.005
0.36549 0.833333 0.005
0.365334 0.875 0.005
0.365178 0.916667 0.005
0.365021 0.958333 0.005
0.364865 1.0 0.005
0.409575 0.0 0.005
0.409401 0.0416667 0.005
0.409227 0.0833333 0.005
0.409054 0.125 0.005
0.40888 0.166667 0.005
0.408706 0.208333 0.005
0.408532 0.25 0.005
0.408359 0.291667 0.005
0.408185 0.333333 0.005
0.408011 0.375 0.005
0.407838 0.416667 0.005
0.407664 0.458333 0.005
0.40749 0.5 0.005
0.407316 0.541667 0.005
0.407143 0.583333 0.005
0.406969 0.625 0.005
0.406795 0.666667 0.005
0.406621 0.708333 0.005
0.406448 0.75 0.005
0.406274 0.791667 0.005
0.4061 0.833333 0.005
0.405927 0.875 0.005
0.405753 0.916667 0.005
0.405579 0.958333 0.005
0.405405 1.0 0.005
0.450532 0.0 0.005
0.450341 0.0416667 0.005
0.45015 0.0833333 0.005
0.449959 0.125 0.005
0.449768 0.166667 0.005
0.449577 0.208333 0.005
0.449386 0.25 0.005
0.449195 0.291667 0.005
0.449003 0.333333 0.005
0.448812 0.375 0.005
0.448621 0.416667 0.005
0.44843 0.458333 0.005
0.448239 0.5 0.005
0.448048 0.541667 0.005
0.447857 0.583333 0.005
0.447666 0.625 0.005
0.447475 0.666667 0.005
0.447284 0.708333 0.005
0.447093 0.75 0.005
0.446901 0.791667 0.005
0.44671 0.833333 0.005
0.446519 0.875 0.005
0.446328 0.916667 0.005
0.446137 0.958333 0.005
0.445946 1.0 0.005
0.49149 0.0 0.005
0.491281 0.0416667 0.005
0.491073 0.0833333 0.005
0.490864 0.125 0.005
0.490656 0.166667 0.005
0.490447 0.208333 0.005
0.490239 0.25 0.005
0.49003 0.291667 0.005
0.489822 0.333333 0.005
0.489613 0.375 0.005
0.489405 0.416667 0.005
0.489197 0.458333 0.005
0.488988 0.5 0.005
0.48878 0.541667 0.005
0.488571 0.583333 0.005
0.488363 0.625 0.005
0.488154 0.666667 0.005
0.487946 0.708333 0.005
0.487737 0.75 0.005
0.487529 0.791667 0.005
0.48732 0.833333 0.005
0.487112 0.875 0.005
0.486903 0.916667 0.005
0.486695 0.958333 0.005
0.486486 1.0 0.005
0.531954 0.00563435 0.005
0.531749 0.0470663 0.005
0.531544 0.0884982 0.005
0.531338 0.12993 0.005
0.531133 0.171362 0.005
0.530928 0.212794 0.005
0.530722 0.254226 0.005
0.530517 0.295658 0.005
0.530312 0.33709 0.005
0.530107 0.378521 0.005
0.529901 0.419953 0.005
0.529696 0.461385 0.005
0.529491 0.502817 0.005
0.529285 0.544249 0.005
0.52908 0.585681 0.005
0.528875 0.627113 0.005
0.528669 0.668545 0.005
0.528464 0.709977 0.005
0.528259 0.751409 0.005
0.528054 0.79284 0.005
0.527848 0.834272 0.005
0.527643 0.875704 0.005
0.527438 0.917136 0.005
0.527232 0.958568 0.005
0.527027 1.0 0.005
0.572289 0.0127465 0.005
0.572093 0.0538821 0.005
0.571896 0.0950177 0.005
0.571699 0.136153 0.005
0.571502 0.177289 0.005
0.571306 0.218424 0.005
0.571109 0.25956 0.005
0.570912 0.300695 0.005
0.570715 0.341831 0.005
0.570519 0.382967 0.005
0.570322 0.424102 0.005
0.570125 0.465238 0.005
0.569928 0.506373 0.005
0.569732 0.547509 0.005
0.569535 0.588644 0.005
0.569338 0.62978 0.005
0.569142 0.670916 0.005
0.568945 0.712051 0.005
0.568748 0.753187 0.005
0.568551 0.794322 0.005
0.568355 0.835458 0.005
0.568158 0.876593 0.005
0.567961 0.917729 0.005
0.567764 0.958864 0.005
0.567568 1.0 0.005
0.612625 0.0198587 0.005
0.612436 0.0606979 0.005
0.612248 0.101537 0.005
0.61206 0.142376 0.005
0.611872 0.183216 0.005
0.611684 0.224055 0.005
0.611496 0.264894 0.005
0.611307 0.305733 0.005
0.611119 0.346572 0.005
0.610931 0.387412 0.005
0.610743 0.428251 0.005
0.610555 0.46909 0.005
0.610366 0.509929 0.005
0.610178 0.550769 0.005
0.60999 0.591608 0.005
0.609802 0.632447 0.005
0.609614 0.673286 0.005
0.609425 0.714125 0.005
0.609237 0.754965 0.005
0.609049 0.795804 0.005
0.608861 0.836643 0.005
0.608673 0.877482 0.005
0.608484 0.918322 0.005
0.608296 0.959161 0.005
0.608108 1.0 0.005
0.65296 0.0269708 0.005
0.65278 0.0675137 0.005
0.652601 0.108057 0.005
0.652421 0.148599 0.005
0.652241 0.189142 0.005
0.652062 0.229685 0.005
0.651882 0.270228 0.005
0.651702 0.310771 0.005
0.651523 0.351314 0.005
0.651343 0.391857 0.005
0.651164 0.4324 0.005
0.650984 0.472943 0.005
0.650804 0.513485 0.005
0.650625 0.554028 0.005
0.650445 0.594571 0.005
0.650265 0.635114 0.005
0.650086 0.675657 0.005
0.649906 0.7162 0.005
0.649726 0.756743 0.005
0.649547 0.797286 0.005
0.649367 0.837828 0.005
0.649188 0.878371 0.005
0.649008 0.918914 0.005
0.648828 0.959457 0.005
0.648649 1.0 0.005
0.693295 0.034083 0.005
0.693124 0.0743295 0.005
0.692953 0.114576 0.005
0.692782 0.154823 0.005
0.692611 0.195069 0.005
0.69244 0.235316 0.005
0.692269 0.275562 0.005
0.692098 0.315809 0.005
0.691926 0.356055 0.005
0.691755 0.396302 0.005
0.691584 0.436548 0.005
[...]
CELL_DATA 888
SCALARS P float 1
LOOKUP_TABLE default
100122.18563409
100121.85418895863
100173.06271040563
100119.59816164669
100172.93349602958
100248.4377970993
100115.73122579647
100169.78962332185
100248.67547618877
100360.27023006562
100110.55174067966
100164.1971120991
100244.08513206703
100361.13573908257
100526.56704918327
100104.36059232941
100156.66153145119
100235.65711438251
100354.13135969205
100528.48379091134
100774.77575963065
100097.45434238417
100147.66550560192
100224.27179096788
100340.99728002315
100517.33985996408
100778.37334074372
101147.5891386767
100090.11195942537
100137.666084325
100210.74452966315
100323.29743674715
100496.27321316072
100759.87134950941
101153.52511596418
101713.70612257766
100082.58287428593
100127.08034213359
100195.81840986511
100302.4477024316
100468.12583783563
100725.15490321047
101121.28460170016
101721.451407986
102590.32993440042
100075.07939896101
100116.27221410224
100180.14561316451
100279.68931936545
100435.40035695441
100679.52199891186
101062.46788835088
101661.89215959878
102592.5669588777
103997.53083687245
100067.77377240156
100105.54493049382
100164.27375626154
100256.06302961409
100400.19114245029
100627.440119673
100987.17935679648
101559.19539559727
102474.48115195321
103956.40165475271
106412.736265757
100060.7989254091
100095.1396027125
100148.64274209431
100232.40343053285
100364.16509462408
100572.43717471947
100903.3988835405
101432.91488678465
102289.12826826562
103702.5781579748
106156.69174137196
111087.10428585527
100054.25194345893
100085.2386792555
100133.58949887042
100209.34751395167
100328.58213549218
100517.14332001192
100816.96842272676
101297.07972062513
102074.11764528474
103356.32346511455
105564.79831174559
109826.4981715303
122091.55649894447
100048.1989364877
100075.97243983341
100119.35885060116
100187.35865654203
100294.34934083435
100463.41400356106
100731.8970957324
101160.95694909086
101852.8996799515
102985.95945750806
104898.47195545172
108360.59264977118
115853.55642681515
132267.78327936356
100042.68055726324
100067.4270741428
100106.11739145813
100166.75355937851
100262.07968167636
100412.48127898158
100650.7718433026
101030.26514052467
101638.9306417648
102625.95507991449
104258.29188932029
107067.15602517119
112308.74949940525
122580.8268508517
140203.93174712893
100037.71759091412
100059.6530941595
100093.96797169691
100147.73061379424
100232.15608505778
100365.10223507177
100575.13564809786
100908.25841146128
101439.3088773735
102292.10591738058
103677.83626997631
105977.19317339353
109930.76995855296
117000.81783527386
128994.31282495408
146602.339463764
100033.31614638279
100052.67369843146
100082.96366838178
100130.39693880822
100204.78720318302
100321.68258621977
100505.79386696169
100796.55736146374
101257.2817073696
101990.51275285517
103164.78460802644
105063.5574581304
108174.68943243466
113399.4764589628
121959.0236979796
134806.74638556462
151838.1031060414
100029.47237875385
100046.492126708
100073.1206170511
100114.79105335812
100180.05246008553
100282.38031336755
100443.05362483647
100695.74045498922
101093.84594047922
101722.35830759357
102717.0559028249
104295.67812755803
106805.3409634417
110852.01277822773
117267.18079032663
126857.89870528562
139969.1166952453
156140.4934970695
100026.17675068243
100041.09835819989
100064.428985727
100100.90352611833
100157.94225343603
100247.1830591983
100386.89103086892
100605.73524838308
100948.71735756517
101486.39936037493
102329.12428725863
103648.108594523
105703.58025679487
108932.18434688577
113926.47918609131
121315.37015779669
131522.26279464498
144504.71335325236
159667.86586685604
100023.41777804452
100036.47502197171
100056.86233903443
100088.69260689734
100138.38663702033
100215.96841060359
100337.07837269602
100526.09203202622
100820.91796891225
101280.28097358001
101994.50996332985
103100.58463307533
104800.58016573903
107425.1004826293
111417.59514239733
117269.75598294467
125377.73777545728
135862.08034484083
148456.6233705268
162539.66142358838
100021.18569967143
100032.60265707724
100050.38615053981
100078.09839540362
100121.28077547306
100188.54755760507
100293.26954902364
100456.15281918837
100709.13859776035
101101.21837565213
101706.7837597046
102636.84029399819
104052.06424437516
106211.3746949393
109459.92774118451
114191.73546767827
120758.69664061248
129337.62252247626
139836.00169761883
151872.5924345429
164850.9092381615
100019.47654496554
100029.46493847838
100044.96488792414
100069.05324939021
100106.50138404733
100164.69842970352
100255.06029212064
100395.16482317775
100611.9443005308
100946.35909456515
101459.98997498055
102243.65785940946
103427.25772223066
105218.06664734519
107892.36412611254
111773.54015395162
117172.75920541135
124288.24810621122
133116.73596724097
143429.70497706358
154799.90684958396
166680.58102461175
100018.29746824998
100027.05485743553
100040.5695148057
100061.4926157813
100093.92359754187
100144.19000691861
100222.0288740916
100342.35797493113
100527.89978953385
100812.97543289975
101248.77709257498
101910.15708442836
102903.36118737976
104396.78294429654
106615.72368525606
109830.03202482255
114315.83911839941
120279.25865668771
127774.53615252108
136665.06925971736
146644.64722618362
157284.06082171007
168096.39843672473
100017.67562819026
100025.38344841001
100037.18668014249
100055.36480488279
100083.43288157422
100126.80109866391
100193.76600322318
100296.98586848089
100455.64578409767
100698.55863099432
101068.43039117906
101627.30996659774
102462.84251184949
103713.24553589507
105564.34975087941
108243.72175954659
111996.5012910733
117029.0010150142
123436.73400945896
131153.2033641218
139952.35546992303
149492.41927545003
159368.54939011423
169157.733418353
100024.49480506551
100034.8320533188
100050.64437543323
100074.93973324804
100112.33649216965
100169.89715025913
100258.36074991261
100393.93609961432
100600.85200989505
100914.8421782327
101387.5880779373
102091.85843199032
103141.87502277261
104692.13392754388
106935.56229424322
110089.16690554342
114353.75599265852
119853.70591923286
126581.0255586146
134376.729271496
142962.16226444702
151989.88338714914
161094.36543882638
169914.38438663504
100033.57348212534
100047.35143288929
100068.39687937622
100100.6451397461
100150.10171994256
100225.87359299438
100341.6618370459
100517.87136603879
100784.47847067784
101184.68871545489
101779.23388419364
102662.98410801942
103965.03797715485
105849.37060947368
108507.23439788725
112129.2981981246
116857.9973558728
122733.23186089822
129658.67362007963
137411.22235013975
145688.54264362343
154157.9654795339
162499.5628285445
170412.9187902556
100045.58539776741
100063.8273563028
100091.6436497818
100134.13266577668
100199.01281721935
100297.8685297735
100447.9037926829
100674.31896263092
101013.34866900503
101515.8804416283
102261.02290291287
103357.01056193686
104943.38069946847
107187.83518586987
110267.7400210689
114334.07740480245
119463.30062480111
125616.17440558514
132627.04497920684
140234.1776324296
148133.11276665688
156019.208983565
163621.02308064772
170689.91532377203
100061.37141118353
100085.35402792241
100121.84909678335
100177.38971395236
100261.76901415049
100389.50375170357
100581.8157499437
100869.17083124674
101294.35146994673
101923.5188648128
102847.64068306929
104185.51654640307
106083.46002676715
108703.67494881814
112198.1623360993
116668.6416746532
122124.36017189173
128457.42815130383
135452.995224516
142832.18026749315
150303.23364660237
157598.02880437992
164489.94934813783
170782.2575803481
100081.96882970347
100113.26540943811
100160.77512364877
100232.7684769179
100341.49773255126
100504.85614137563
100748.51290018082
101108.53372892548
101640.37477135334
102420.65128151646
103550.51179925086
105157.0306559686
107386.60687587743
110386.59538661409
114273.886147195
119095.89112336726
124798.50248012286
131219.0476707205
138112.20828842407
145199.09174889742
152210.36764696002
158918.4015297882
165139.51981431304
170718.96377870982
100108.64105042686
100149.16660483133
100210.51061776256
100303.00637088103
100441.74872221056
100648.39649209395
100953.41718692667
101403.39406104833
102062.93296597841
103018.14270094558
104379.02701896786
106276.23975828564
108848.82091342528
112220.53512418456
116466.29969718502
121578.33823400013
127447.13152218885
133869.99273071846
140587.8495993244
147333.7694546237
153868.71406135947
160004.19856027624
165596.5969480137
170531.65287708255
100142.9078249601
100194.96214401971
100273.49466363719
100391.2318271257
100566.46266980899
100824.95870138885
101205.91047673918
101763.85936891701
102572.0948833518
103725.5713023188
105339.891901933
107543.59861318866
110460.96740296432
114184.82093019139
118744.43342806127
124079.85289228638
130036.34356200523
136385.9070115691
142869.54194966675
149240.7339746623
155294.5185652586
160879.8257952421
165890.00483700124
170241.72162628046
100186.57318812312
100252.88169813516
100352.53174864162
100500.95635708567
100719.97129442802
101042.5681505149
101514.8306767437
102199.12827264807
103177.22802743988
104550.70918325504
106436.55787267661
108955.17844383034
112209.1818007916
116255.28579854112
121076.48234124843
126566.66645045992
132537.39607775008
138749.01239850518
144952.42609044883
150927.40313105847
156505.05902151775
161569.29277242403
166044.809099159
169880.29500179648
100241.75269280717
100325.5021174773
100450.80206111884
100636.09893124898
100909.1730648845
101308.96209195442
101888.515767653
102718.09638925645
103886.49368953779
105498.89543497877
107668.91026302606
110502.7429239803
114075.70031156675
118405.48745298747
123431.1492320968
129008.51473746105
134926.9075060147
140945.93266915533
146835.58326276008
152405.13962035227
157519.6304028138
162096.07477685876
166087.4721403377
169468.58956467497
100310.8978903818
100415.7679444256
100571.89803708036
100802.64673851668
101140.87003129313
101631.6532170759
102335.25135806347
103328.93140144386
104706.3683310153
106572.70363668114
109033.14171277721
112174.16806233197
116039.66500588367
120607.91263959293
125778.6967331044
131378.44335973795
137186.51480700486
142970.13791149677
148522.85042449945
153686.24372123805
158357.49779477416
162483.20162528887
166043.4293077402
169037.68379161842
100396.82432573737
100527.04034257871
100721.09597654614
101006.61274089638
101421.81652954977
102018.26950884491
102862.93060059933
104038.61163653528
105641.18516064493
107771.65188673258
110521.79243068861
113953.85872445536
118078.08544247721
122835.01454028644
128091.72590863855
133654.8013819346
139301.94096576291
144817.0981080252
150020.33372982085
154784.69370818738
159038.8355375908
162755.72791234328
165940.98796501575
168621.38966437662
100502.76553865733
100664.08108895489
100903.77611405663
101254.09080105627
101758.99621908397
102476.29368525698
103478.7056349124
104852.60185742941
106692.83341585752
109092.0006006769
112124.01576692611
115823.52308391083
120166.64859696575
125060.1545359688
130345.14726373911
135818.68714095582
141264.48694921078
146487.2505936111
151336.79962277555
155716.6628264801
159584.1313629005
162938.51091411774
165810.66972691976
168271.2182757582
100633.20012434176
100831.81533075326
101125.48687753316
101551.46872160268
102159.40244214857
103012.75876947041
104188.60311661818
105774.42592690469
107860.49665839452
110526.92280472638
113825.87605995653
117762.74578534435
122280.8369794926
127257.91725583837
132517.81812765863
137855.11928711671
143067.25252601175
147983.58112658665
152482.77377263812
156498.5251141454
160015.23717680754
163057.87417646943
165690.0590886626
168046.16890598426
100792.78877084519
101035.3822442142
101392.1071105774
101905.25562355945
102629.81987714258
103633.94070403141
104997.19940683625
106805.37705131348
109140.53144243146
112066.45508250156
115610.95242354194
119749.40537025883
124395.90737491088
129405.21862226681
134591.0496680879
139753.33034978487
144707.91860272482
149310.88318450152
153469.733189546
157146.9051189641
160352.66571784258
163138.76323317926
165614.57344064632
100986.4407840577
101280.26088221847
101709.69705965562
102321.88748368273
103176.51363901749
104345.03825891273
105907.32830980983
107944.32866060596
110526.4285931897
113697.92840817387
117460.70674735965
121761.55247041311
126488.60746732319
131480.9232114123
136549.32571305375
141504.92503329253
146185.47150280976
150474.4611010071
154308.57717085627
157676.27381895928
160611.03377352658
163194.6631810086
101219.40268752459
101572.1607465795
102084.34296664501
102807.49557677668
103804.96442045353
105149.84292006094
106919.70996574633
109187.59516137095
112008.9569236591
115406.29460692285
119355.17192627692
123776.01165391605
128536.37522272207
133466.21835277116
138379.3717119348
143103.28162504162
147499.9320578885
151480.51127867374
155007.12796560253
158091.04348521784
160782.3224814663
101497.16340020801
101916.86351717825
102521.95579791104
103367.631515533
104519.59097164344
106050.45790956449
108032.85118048727
110528.79426503304
113575.98492646862
117174.02318788372
121272.78927589768
125769.83856045989
130518.01256778378
135343.48319063554
140069.40859654406
144542.77580714374
148650.30581680386
152328.65723374128
155560.65496897363
158363.7669070822
101825.32565675279
102320.05950907459
103028.03660504683
104007.01778623542
105323.42110173179
107047.07721750501
109242.85150770977
111959.03097130271
115213.51953847441
118982.25820979278
123191.91247831704
127721.029450347
132413.1787776681
137096.40203131989
141608.0590294066
145815.45729729658
149629.68888875673
153004.30800546386
155922.66641734663
102209.42452359296
102787.14492113462
103607.4319269786
104729.28777187836
106217.83190660387
108137.70117565956
110543.281587429
113466.51144514007
116904.78333733907
120810.69291760407
125089.77689253383
129607.13206870064
134201.70021375013
138708.6843003514
142981.4113142855
146907.34398483086
150412.72339118386
153444.99881486158
102654.76045161938
103322.98174102616
104264.09931333803
105536.64572646984
107202.33799018263
109318.02632051765
111925.00339427344
115037.33043809044
118630.80492583958
122636.47898904167
126942.98566323728
131404.97229437428
135862.30811705565
140160.21304546393
144167.7885141991
147783.9028025849
150922.22476996898
103166.1769558271
103931.65904534838
105000.77167305042
106429.6294405795
108274.13749995978
110581.01179013819
113376.31369617619
116654.69464111904
120370.77680371175
124436.66963380192
128726.21748747262
133089.34056034553
137369.47177736353
141421.9103629544
145122.55895820964
148352.14975664736
103747.80410073137
104616.23894595494
105818.73758581001
107406.87773496259
109428.39884327879
111917.22517949126
114882.60776429543
118299.1310275975
122101.2910485162
126184.02521447689
130410.88471294891
134629.7639772245
138687.45030251303
142440.50490122227
145740.51812908167
104402.82192405176
105378.44232226184
106717.56038744964
108464.76345032883
110657.22840589468
113314.01303415032
116426.25865361695
119948.06176867806
123795.42867812353
127848.6675964917
131963.63578083162
135984.51557314134
139754.61157019075
143098.76771759993
105133.18520487257
106218.39007278111
107694.53279873468
109596.92897201296
111949.78749244937
114755.50090329474
117985.72023392949
121574.95661878501
125421.82238126938
129393.31100097108
133336.72498666713
137085.4767739429
140443.6179492136
105939.26571325111
107134.20987298939
108744.81804310008
110794.50011732796
113292.05573680437
116221.84856535909
119535.3019812459
123147.88119972944
126940.67775948445
130767.1401951921
134455.8297032051
137795.669560442
106819.62935387349
108121.70412195806
109860.38648329594
112044.54344154803
114665.74388613724
117688.44706289862
121043.4007375996
124626.16784830301
128298.64852557366
131890.12766958677
135178.0274913854
107770.50865141232
109173.9456939869
111029.98774026906
113330.5201200224
116047.58714102584
119124.18632901453
122468.91070343075
125954.42049461111
129412.7917656125
132615.32492472426
108785.48217577155
110280.59428336359
112238.18439128043
114630.42976645967
117407.48299766557
120488.27341185688
123755.49121017715
127047.1292489688
130131.98445898553
109854.74294960791
111427.18904673807
113464.2948747654
115915.29529758178
118705.18621574905
121724.46900805265
124817.10472538341
127753.08034518383
110964.36474730748
112594.03110139762
114680.401121786
117146.32552351028
119885.36165458853
122747.10097702556
125503.35065302785
112095.31944771721
113754.45003791647
115849.28563152712
118269.18678008788
120864.18736870847
123408.51393120625
113221.6181455485
114871.98345531386
116917.76724526974
119201.76331182041
121497.33803109384
114307.54847134728
115895.27462892792
117806.51581571791
119805.45654622818
115302.7267289586
116747.20981235952
118381.54325482507
116131.41985225286
117298.14279023345
116667.27722844706
SCALARS T float 1
LOOKUP_TABLE default
300.10546282649017
300.10515950743576
300.1497910492081
300.103190180231
300.14964006363493
300.21583443364216
300.0998263637018
300.14687155389674
300.2159516779394
300.3145390296798
300.0953275884679
300.1419765226106
300.21185997925636
300.3150921514971
300.4626904937181
300.0899559614597
300.1353965299107
300.2044219276869
300.30874923127584
300.463916714066
300.68641463050164
300.08396966982684
300.12755416926603
300.1944108651632
300.29703515518463
300.4536266441299
300.68856771957167
301.02723608666554
300.0776111832358
300.1188494463373
300.1825453303504
300.28133412116847
300.4345926831044
300.67109239576433
301.03021800138066
301.55318208785513
300.0710968069333
300.10964657501376
300.16947970926896
300.26290347806474
300.4093534428911
300.6392423318419
300.9990245577424
301.55498188964583
302.3809754727899
300.0646101566439
300.1002623411751
300.1557865795715
300.2428440399862
300.38015096438914
300.5977998801281
300.9441359173465
301.49607511226327
302.3716077360757
303.7255690741418
300.0582997195282
300.0909596497713
300.1419445138783
300.2220747832723
300.3488568924663
300.5508053459973
300.8747730622369
301.39855856775307
302.253129128076
303.6638773715846
306.02693516371465
300.0522796651469
300.08194657606185
300.128335745858
300.20132786979894
300.3169515525581
300.5014357341254
300.7982198670562
301.2804524212607
302.07448333301886
303.4092922035884
305.74839780413987
310.3226548550554
300.04663298663377
300.0733796936958
300.1152509985144
300.1811574149138
300.2855434324858
300.45203829637444
300.7197729275036
301.15466130774416
301.8705555917718
303.0728549403379
305.16754428308883
309.15013103953373
319.45335254322987
300.04141583373263
300.06537001435066
300.1028996942299
300.16196222513446
300.255420631168
300.40424640360425
300.64301938554854
301.02962302021956
301.6630139615513
302.7180055409636
304.52287579423313
307.7789380726682
314.45337783281025
327.38371332648813
300.0366623748475
300.0579902386855
300.091422677781
300.1440110069571
300.227106624089
300.3591234931118
300.5702257363918
300.910440981184
301.464104213827
302.3766254136031
303.9079304856005
306.5540972119289
311.36664764722923
320.1178432546262
333.32493018193276
300.03238968842044
300.0512822251041
300.0809053056806
300.1274684739064
300.20092007086276
300.3173035429223
300.5026986650945
300.7999167645875
301.28006935032766
302.0629702264884
303.3542396295065
305.51575459119124
309.1970288462262
315.5047937503239
325.30516838605797
337.98779365761544
300.0286022821952
300.04526434900856
300.07138992279204
300.11241988558305
300.1770263403226
300.27910725262603
300.441076428273
300.6993457677172
301.11354323502655
301.78210243209156
302.86860357545726
304.64529635548985
307.55576002168533
312.3378759063731
319.7395232684567
329.84706698665946
341.7269440400665
300.0252961856077
300.0399379314493
300.06288720664793
300.0988914061207
300.155478667895
300.24463814143223
300.3855544427856
300.6090815499606
300.96508805577577
301.53445947962757
302.4482688891523
303.91651760965453
306.26275338179806
310.01323521025864
315.7589854129083
323.7917059746555
333.7641182670591
344.7504851958038
300.0224626280317
300.03529305749623
300.05538578597486
300.08686840985024
300.13625428507754