# vtk DataFile Version 2.0
JuliaCFD
ASCII
DATASET UNSTRUCTURED_GRID

POINTS 1900 float
0.0 0.0 0.005
0.0 0.0416667 0.005
0.0 0.0833333 0.005
0.0 0.125 0.005
0.0 0.166667 0.005
0.0 0.208333 0.005
0.0 0.25 0.005
0.0 0.291667 0.005
0.0 0.333333 0.005
0.0 0.375 0.005
0.0 0.416667 0.005
0.0 0.458333 0.005
0.0 0.5 0.005
0.0 0.541667 0.005
0.0 0.583333 0.005
0.0 0.625 0.005
0.0 0.666667 0.005
0.0 0.708333 0.005
0.0 0.75 0.005
0.0 0.791667 0.005
0.0 0.833333 0.005
0.0 0.875 0.005
0.0 0.916667 0.005
0.0 0.958333 0.005
0.0 1.0 0.005
0.0409575 0.0 0.005
0.0409401 0.0416667 0.005
0.0409227 0.0833333 0.005
0.0409054 0.125 0.005
0.040888 0.166667 0.005
0.0408706 0.208333 0.005
0.0408532 0.25 0.005
0.0408359 0.291667 0.005
0.0408185 0.333333 0.005
0.0408011 0.375 0.005
0.0407838 0.416667 0.005
0.0407664 0.458333 0.005
0.040749 0.5 0.005
0.0407316 0.541667 0.005
0.0407143 0.583333 0.005
0.0406969 0.625 0.005
0.0406795 0.666667 0.005
0.0406621 0.708333 0.005
0.0406448 0.75 0.005
0.0406274 0.791667 0.005
0.04061 0.833333 0.005
0.0405927 0.875 0.005
0.0405753 0.916667 0.005
0.0405579 0.958333 0.005
0.0405405 1.0 0.005
0.0819149 0.0 0.005
0.0818802 0.0416667 0.005
0.0818455 0.0833333 0.005
0.0818107 0.125 0.005
0.081776 0.166667 0.005
0.0817412 0.208333 0.005
0.0817065 0.25 0.005
0.0816717 0.291667 0.005
0.081637 0.333333 0.005
0.0816022 0.375 0.005
0.0815675 0.416667 0.005
0.0815328 0.458333 0.005
0.081498 0.5 0.005
0.0814633 0.541667 0.005
0.0814285 0.583333 0.005
0.0813938 0.625 0.005
0.081359 0.666667 0.005
0.0813243 0.708333 0.005
0.0812895 0.75 0.005
0.0812548 0.791667 0.005
0.0812201 0.833333 0.005
0.0811853 0.875 0.005
0.0811506 0.916667 0.005
0.0811158 0.958333 0.005
0.0810811 1.0 0.005
0.122872 0.0 0.005
0.12282 0.0416667 0.005
0.122768 0.0833333 0.005
0.122716 0.125 0.005
0.122664 0.166667 0.005
0.122612 0.208333 0.005
0.12256 0.25 0.005
0.122508 0.291667 0.005
0.122455 0.333333 0.005
0.122403 0.375 0.005
0.122351 0.416667 0.005
0.122299 0.458333 0.005
0.122247 0.5 0.005
0.122195 0.541667 0.005
0.122143 0.583333 0.005
0.122091 0.625 0.005
0.122039 0.666667 0.005
0.121986 0.708333 0.005
0.121934 0.75 0.005
0.121882 0.791667 0.005
0.12183 0.833333 0.005
0.121778 0.875 0.005
0.121726 0.916667 0.005
0.121674 0.958333 0.005
0.121622 1.0 0.005
0.16383 0.0 0.005
0.16376 0.0416667 0.005
0.163691 0.0833333 0.005
0.163621 0.125 0.005
0.163552 0.166667 0.005
0.163482 0.208333 0.005
0.163413 0.25 0.005
0.163343 0.291667 0.005
0.163274 0.333333 0.005
0.163204 0.375 0.005
0.163135 0.416667 0.005
0.163066 0.458333 0.005
0.162996 0.5 0.005
0.162927 0.541667 0.005
0.162857 0.583333 0.005
0.162788 0.625 0.005
0.162718 0.666667 0.005
0.162649 0.708333 0.005
0.162579 0.75 0.005
0.16251 0.791667 0.005
0.16244 0.833333 0.005
0.162371 0.875 0.005
0.162301 0.916667 0.005
0.162232 0.958333 0.005
0.162162 1.0 0.005
0.204787 0.0 0.005
0.2047 0.0416667 0.005
0.204614 0.0833333 0.005
0.204527 0.125 0.005
0.20444 0.166667 0.005
0.204353 0.208333 0.005
0.204266 0.25 0.005
0.204179 0.291667 0.005
0.204092 0.333333 0.005
0.204006 0.375 0.005
0.203919 0.416667 0.005
0.203832 0.458333 0.005
0.203745 0.5 0.005
0.203658 0.541667 0.005
0.203571 0.583333 0.005
0.203484 0.625 0.005
0.203398 0.666667 0.005
0.203311 0.708333 0.005
0.203224 0.75 0.005
0.203137 0.791667 0.005
0.20305 0.833333 0.005
0.202963 0.875 0.005
0.202876 0.916667 0.005
0.20279 0.958333 0.005
0.202703 1.0 0.005
0.245745 0.0 0.005
0.245641 0.0416667 0.005
0.245536 0.0833333 0.005
0.245432 0.125 0.005
0.245328 0.166667 0.005
0.245224 0.208333 0.005
0.245119 0.25 0.005
0.245015 0.291667 0.005
0.244911 0.333333 0.005
0.244807 0.375 0.005
0.244703 0.416667 0.005
0.244598 0.458333 0.005
0.244494 0.5 0.005
0.24439 0.541667 0.005
0.244286 0.583333 0.005
0.244181 0.625 0.005
0.244077 0.666667 0.005
0.243973 0.708333 0.005
0.243869 0.75 0.005
0.243764 0.791667 0.005
0.24366 0.833333 0.005
0.243556 0.875 0.005
0.243452 0.916667 0.005
0.243347 0.958333 0.005
0.243243 1.0 0.005
0.286702 0.0 0.005
0.286581 0.0416667 0.005
0.286459 0.0833333 0.005
0.286337 0.125 0.005
0.286216 0.166667 0.005
0.286094 0.208333 0.005
0.285973 0.25 0.005
0.285851 0.291667 0.005
0.285729 0.333333 0.005
0.285608 0.375 0.005
0.285486 0.416667 0.005
0.285365 0.458333 0.005
0.285243 0.5 0.005
0.285121 0.541667 0.005
0.285 0.583333 0.005
0.284878 0.625 0.005
0.284757 0.666667 0.005
0.284635 0.708333 0.005
0.284513 0.75 0.005
0.284392 0.791667 0.005
0.28427 0.833333 0.005
0.284149 0.875 0.005
0.284027 0.916667 0.005
0.283905 0.958333 0.005
0.283784 1.0 0.005
0.32766 0.0 0.005
0.327521 0.0416667 0.005
0.327382 0.0833333 0.005
0.327243 0.125 0.005
0.327104 0.166667 0.005
0.326965 0.208333 0.005
0.326826 0.25 0.005
0.326687 0.291667 0.005
0.326548 0.333333 0.005
0.326409 0.375 0.005
0.32627 0.416667 0.005
0.326131 0.458333 0.005
0.325992 0.5 0.005
0.325853 0.541667 0.005
0.325714 0.583333 0.005
0.325575 0.625 0.005
0.325436 0.666667 0.005
0.325297 0.708333 0.005
0.325158 0.75 0.005
0.325019 0.791667 0.005
0.32488 0.833333 0.005
0.324741 0.875 0.005
0.324602 0.916667 0.005
0.324463 0.958333 0.005
0.324324 1.0 0.005
0.368617 0.0 0.005
0.368461 0.0416667 0.005
0.368305 0.0833333 0.005
0.368148 0.125 0.005
0.367992 0.166667 0.005
0.367835 0.208333 0.005
0.367679 0.25 0.005
0.367523 0.291667 0.005
0.367366 0.333333 0.005
0.36721 0.375 0.005
0.367054 0.416667 0.005
0.366897 0.458333 0.005
0.366741 0.5 0.005
0.366585 0.541667 0.005
0.366428 0.583333 0.005
0.366272 0.625 0.005
0.366116 0.666667 0.005
0.365959 0.708333 0.005
0.365803 0.75 0.005
0.365647 0.791667 0.005
0.36549 0.833333 0.005
0.365334 0.875 0.005
0.365178 0.916667 0.005
0.365021 0.958333 0.005
0.364865 1.0 0.005
0.409575 0.0 0.005
0.409401 0.0416667 0.005
0.409227 0.0833333 0.005
0.409054 0.125 0.005
0.40888 0.166667 0.005
0.408706 0.208333 0.005
0.408532 0.25 0.005
0.408359 0.291667 0.005
0.408185 0.333333 0.005
0.408011 0.375 0.005
0.407838 0.416667 0.005
0.407664 0.458333 0.005
0.40749 0.5 0.005
0.407316 0.541667 0.005
0.407143 0.583333 0.005
0.406969 0.625 0.005
0.406795 0.666667 0.005
0.406621 0.708333 0.005
0.406448 0.75 0.005
0.406274 0.791667 0.005
0.4061 0.833333 0.005
0.405927 0.875 0.005
0.405753 0.916667 0.005
0.405579 0.958333 0.005
0.405405 1.0 0.005
0.450532 0.0 0.005
0.450341 0.0416667 0.005
0.45015 0.0833333 0.005
0.449959 0.125 0.005
0.449768 0.166667 0.005
0.449577 0.208333 0.005
0.449386 0.25 0.005
0.449195 0.291667 0.005
0.449003 0.333333 0.005
0.448812 0.375 0.005
0.448621 0.416667 0.005
0.44843 0.458333 0.005
0.448239 0.5 0.005
0.448048 0.541667 0.005
0.447857 0.583333 0.005
0.447666 0.625 0.005
0.447475 0.666667 0.005
0.447284 0.708333 0.005
0.447093 0.75 0.005
0.446901 0.791667 0.005
0.44671 0.833333 0.005
0.446519 0.875 0.005
0.446328 0.916667 0.005
0.446137 0.958333 0.005
0.445946 1.0 0.005
0.49149 0.0 0.005
0.491281 0.0416667 0.005
0.491073 0.0833333 0.005
0.490864 0.125 0.005
0.490656 0.166667 0.005
0.490447 0.208333 0.005
0.490239 0.25 0.005
0.49003 0.291667 0.005
0.489822 0.333333 0.005
0.489613 0.375 0.005
0.489405 0.416667 0.005
0.489197 0.458333 0.005
0.488988 0.5 0.005
0.48878 0.541667 0.005
0.488571 0.583333 0.005
0.488363 0.625 0.005
0.488154 0.666667 0.005
0.487946 0.708333 0.005
0.487737 0.75 0.005
0.487529 0.791667 0.005
0.48732 0.833333 0.005
0.487112 0.875 0.005
0.486903 0.916667 0.005
0.486695 0.958333 0.005
0.486486 1.0 0.005
0.531954 0.00563435 0.005
0.531749 0.0470663 0.005
0.531544 0.0884982 0.005
0.531338 0.12993 0.005
0.531133 0.171362 0.005
0.530928 0.212794 0.005
0.530722 0.254226 0.005
0.530517 0.295658 0.005
0.530312 0.33709 0.005
0.530107 0.378521 0.005
0.529901 0.419953 0.005
0.529696 0.461385 0.005
0.529491 0.502817 0.005
0.529285 0.544249 0.005
0.52908 0.585681 0.005
0.528875 0.627113 0.005
0.528669 0.668545 0.005
0.528464 0.709977 0.005
0.528259 0.751409 0.005
0.528054 0.79284 0.005
0.527848 0.834272 0.005
0.527643 0.875704 0.005
0.527438 0.917136 0.005
0.527232 0.958568 0.005
0.527027 1.0 0.005
0.572289 0.0127465 0.005
0.572093 0.0538821 0.005
0.571896 0.0950177 0.005
0.571699 0.136153 0.005
0.571502 0.177289 0.005
0.571306 0.218424 0.005
0.571109 0.25956 0.005
0.570912 0.300695 0.005
0.570715 0.341831 0.005
0.570519 0.382967 0.005
0.570322 0.424102 0.005
0.570125 0.465238 0.005
0.569928 0.506373 0.005
0.569732 0.547509 0.005
0.569535 0.588644 0.005
0.569338 0.62978 0.005
0.569142 0.670916 0.005
0.568945 0.712051 0.005
0.568748 0.753187 0.005
0.568551 0.794322 0.005
0.568355 0.835458 0.005
0.568158 0.876593 0.005
0.567961 0.917729 0.005
0.567764 0.958864 0.005
0.567568 1.0 0.005
0.612625 0.0198587 0.005
0.612436 0.0606979 0.005
0.612248 0.101537 0.005
0.61206 0.142376 0.005
0.611872 0.183216 0.005
0.611684 0.224055 0.005
0.611496 0.264894 0.005
0.611307 0.305733 0.005
0.611119 0.346572 0.005
0.610931 0.387412 0.005
0.610743 0.428251 0.005
0.610555 0.46909 0.005
0.610366 0.509929 0.005
0.610178 0.550769 0.005
0.60999 0.591608 0.005
0.609802 0.632447 0.005
0.609614 0.673286 0.005
0.609425 0.714125 0.005
0.609237 0.754965 0.005
0.609049 0.795804 0.005
0.608861 0.836643 0.005
0.608673 0.877482 0.005
0.608484 0.918322 0.005
0.608296 0.959161 0.005
0.608108 1.0 0.005
0.65296 0.0269708 0.005
0.65278 0.0675137 0.005
0.652601 0.108057 0.005
0.652421 0.148599 0.005
0.652241 0.189142 0.005
0.652062 0.229685 0.005
0.651882 0.270228 0.005
0.651702 0.310771 0.005
0.651523 0.351314 0.005
0.651343 0.391857 0.005
0.651164 0.4324 0.005
0.650984 0.472943 0.005
0.650804 0.513485 0.005
0.650625 0.554028 0.005
0.650445 0.594571 0.005
0.650265 0.635114 0.005
0.650086 0.675657 0.005
0.649906 0.7162 0.005
0.649726 0.756743 0.005
0.649547 0.797286 0.005
0.649367 0.837828 0.005
0.649188 0.878371 0.005
0.649008 0.918914 0.005
0.648828 0.959457 0.005
0.648649 1.0 0.005
0.693295 0.034083 0.005
0.693124 0.0743295 0.005
0.692953 0.114576 0.005
0.692782 0.154823 0.005
0.692611 0.195069 0.005
0.69244 0.235316 0.005
0.692269 0.275562 0.005
0.692098 0.315809 0.005
0.691926 0.356055 0.005
0.691755 0.396302 0.005
0.691584 0.436548 0.005
[...]
CELL_DATA 888
SCALARS P float 1
LOOKUP_TABLE default
100144.80975319816
100144.46252524965
100204.03281454754
100142.06998782602
100203.90555845478
100290.2278990015
100137.96197479566
100200.58340144315
100290.49945631041
100416.05662057835
100132.44973823206
100194.66128466213
100285.67781121642
100417.00769436017
100600.42434090517
100125.84627792738
100186.6663762843
100276.80018152922
100409.70227137336
100602.5075137112
100871.92519276346
100118.46031102995
100177.10017580909
100264.78176992046
100395.95321632954
100590.96769884629
100875.81455667953
101274.71083229524
100110.5831313425
100166.43772623698
100250.46745510875
100377.37931688956
100569.05408739891
100856.78335522088
101281.13219866612
101879.32737277156
100102.47651272977
100155.11376814093
100234.62741572908
100355.44242498315
100539.6944674972
100820.88815652698
101248.16710222281
101887.8543098725
102805.30986524474
100094.36490229079
100143.50958798139
100217.93958853738
100331.42490805825
100505.46318689013
100773.56241517534
101187.68714589799
101827.26809058158
102808.76332230965
104275.69546792255
100086.4322618883
100131.94525579632
100200.97620490269
100306.40534709122
100468.51721814128
100719.38603974892
101110.01442640004
101722.1843255719
102689.1467974125
104236.33314252275
106771.89946150228
100078.82267162691
100120.6779986741
100184.20058297909
100281.25352478206
100430.57934370945
100661.98246622665
101023.30616899524
101592.51449930432
102500.30036437022
103980.06088707183
106517.91155732381
111551.57767072206
100071.64369129334
100109.90549614505
100167.97170337112
100256.63895263612
100392.95960105926
100604.06407358842
100933.54982458442
101452.56814095068
102280.42997619818
103628.58662675665
105921.73634184753
110290.92816738157
122701.76259581292
100064.97117424814
100099.77226140605
100152.55495694255
100233.05501473285
100356.6102126467
100547.55752254566
100844.874416925
101311.83094067036
102053.4234576599
103251.21575498804
105247.47073232151
108816.81796928069
116447.80506856505
133040.0948411098
100058.8547684123
100090.377671406
100138.13596705903
100210.84592086193
100322.1846168727
100493.7567288065
100759.96661286993
101176.19325373451
101833.0571119962
102883.0715741774
104597.19859576358
107511.20892645781
112886.5662253947
123326.45983708359
141147.84929647364
100053.32352049524
100081.78436290202
100124.8350612686
100190.2351187481
100290.10206425266
100443.47283947517
100680.45307798483
101049.04585704664
101626.66712036054
102540.39350335994
104005.38497688739
106406.88721799452
110490.28823855003
117722.49011515122
129909.32457128575
147729.6035179127
100048.39110449408
100074.02663839469
100112.72127792901
100171.35249661935
100260.60379470968
100397.15884768564
100607.20989814014
100932.11960202274
101437.68142558115
102229.59435732718
103480.2701844156
105477.66826261948
108714.38406637627
114096.56971092615
122845.78739877566
135908.11376471634
153161.50651889373
100044.06060253452
100067.11786724818
100101.82528024128
100154.25713813414
100233.79830024728
100355.01426910573
100540.60467970112
100826.08346476487
101267.23750429554
101952.08444472656
103020.15112019342
104693.58446940806
107324.2530444224
111523.40279087733
118124.44339936039
127930.125210719
141273.53827999675
157673.32922206793
100040.32885159578
100061.05727629381
100092.15043041306
100138.95821132137
100209.70203395511
100317.06328011047
100480.665324227
100730.94002723251
101115.16298992344
101706.79191652956
102619.77069713356
104029.60066260275
106201.2561076761
109577.02779171067
114752.67723882583
122355.25642293139
132799.77829827747
146028.64702442466
161423.66149113138
100037.19029773083
100055.83598010016
100083.68227506484
100125.43072150637
100188.26828950967
100283.21572350332
100427.20896090144
100646.30282073846
100980.57039852683
101491.49486396296
102272.8482224562
103465.74910990821
105276.97006177431
108042.99929036079
112211.51714987707
118274.45587179094
126622.45385928015
137364.29732004684
150216.2900532037
164531.98864993398
100034.64083990076
100051.44241099436
100076.39728297183
100113.62999576026
100169.41317304234
100253.3113170182
100379.9285380911
100571.5675452738
100862.22530269936
101303.51416022943
101973.10632757728
102985.98503053958
104507.43010321616
106802.36042447966
110220.91529604605
115159.08464701608
121965.82254514995
130809.0079191054
141581.79081362183
153883.83310444522
167093.20049088335
100032.68219106135
100047.86782560607
100070.27017891916
100103.50229065544
100153.03220359041
100227.15340719064
100338.45403162562
100506.02739071616
100758.75516420243
101140.08269707374
101714.70848221547
102577.25978784917
103862.1083076651
105782.53131911857
108620.30560587683
112702.17602598626
118338.63711551605
125721.64179709324
134836.07319981186
145437.28738382028
157078.01681584062
169185.93891377002
100031.32772924616
100045.11298249886
100065.28189981749
100094.9961429177
100139.01783676105
100204.53388466046
100302.39397164239
100448.95236443913
100668.77745843031
100998.54310287882
101492.39829247705
102228.82488027577
103318.39358016988
104935.40982484269
107310.98939166903
110719.36499229204
115437.94147492747
121669.09849460806
129457.64961520216
138652.8695327927
148931.37124531288
159843.6073919889
170877.38627402647
100030.61240854423
100043.19778658115
100061.42959882089
100088.0727894369
100127.27190935948
100185.2526543765
100271.36625700138
100399.6311061106
100590.97837206328
100876.44569400416
101301.53844932962
101931.7569602781
102858.9010590871
104226.95263520408
106227.70176061896
109093.84121006455
113073.35970987625
118371.17702044777
125075.87158438635
133108.78050481676
142228.17803016998
152074.61776899878
162223.1576518982
172226.14152176163
100042.17810522017
100058.74143550033
100082.72081836795
100117.72148190683
100169.13468997263
100245.02151893858
100357.40750087195
100524.15146100639
100771.58379531468
101138.08501438971
101678.61173338396
102469.9064969316
103631.7594046743
105324.6501985932
107747.12435997758
111120.25811510964
115645.52376715689
121442.86224462987
128494.2901340401
136626.50164217394
145544.3034288394
154882.61507205808
164256.4842607674
173280.86852830395
100057.30250419055
100078.97760907575
100110.33771788994
100156.04978987167
100223.06371358552
100321.70200114847
100467.22356565083
100682.01692468772
100998.5582293225
101463.15486641736
102140.3270449048
103130.28655270788
104568.0448857952
106623.48578148654
109492.83692911231
113369.145806299
118392.79153853092
124596.06800978207
131869.9605503044
139975.5727740385
148593.77479081726
157374.75696626186
165980.211386371
174086.70185435854
100076.96706316835
100105.16711346232
100145.93851370871
100205.27161001961
100292.03211580408
100419.27396740938
100606.07179182858
100879.98477767351
101280.18101295817
101861.14867017041
102707.09441108759
103932.02517439546
105681.51868558025
108128.88820831463
111455.24504142473
115811.65102542828
121269.42886892494
127778.67963819527
135158.91641260634
143131.80795723188
151376.3818087522
159571.86251066806
167429.31799121166
174678.08235932054
100102.38376316486
100138.85414800623
100191.53498348559
100268.04083723939
100379.54960003456
100542.34062596755
100779.85952932813
101125.342757901
101624.98743224113
102349.79928378221
103396.32860339773
104889.42858501608
106981.43066658267
109839.32712756204
113617.03009914703
118413.52691073091
124229.73023453081
130944.3636942852
138326.24734779223
146079.7628525542
153897.3672339902
161496.10668979536
168632.6527439737
175089.44755539656
100135.03508845736
100181.9092787386
100249.53768489356
100347.49387533347
100489.68916292068
100696.11133332712
100995.04337723656
101425.78345064247
102048.37430916965
102944.79324441859
104222.16549743662
106013.800309075
108471.6540968437
111746.47826961945
115954.63956309068
121137.6759913617
127230.02885966614
134053.4354835993
141345.45362834958
148810.8794670175
156165.76411647344
163168.7499297052
169620.45552150503
175346.38173795873
100176.71509108251
100236.57347080387
100322.79885473152
100447.2837862619
100627.09361334378
100886.34996766302
101258.57464235417
101794.68381670548
102564.40229555717
103659.66965040838
105196.80552918858
107312.53400988599
110150.46429323888
113835.76116653463
118439.89836607045
123945.9390551081
130230.12007429538
137072.6057848668
144197.0753421083
151321.1668569218
158192.71493361754
164610.4262980188
170416.00354906658
175476.56122868002
100229.57229871806
100305.49948985166
100414.64926976293
100571.59878961288
100796.95470592454
101119.3687623744
101582.11706961236
102244.60440578962
103185.75723371316
104506.81636507626
106329.76820461555
108788.60056468108
112010.59289520343
116087.3908012421
121041.57149857146
126800.82607233223
133193.87701578246
139974.73418895932
146867.6205747775
153611.91730961832
159990.8775457315
165841.60710353844
171043.69523228356
175496.01509496477
100296.15056360858
100391.79132500576
100528.92652046659
100725.16581365863
101005.03734848405
101405.37436943594
101976.86634302628
102787.29253442134
103924.59435768634
105496.88184555106
107627.20595524219
110440.26003602783
114039.48449482353
118477.37041962212
123726.82343622405
129666.48179535381
136089.71120277254
142738.70942235104
149348.61614102565
155686.64280708513
161573.2692653794
166881.54239207643
171523.0822722095
175429.47587518525
100379.43014916343
100499.039680439
100669.9978826426
100913.29823515318
101260.32940137375
101754.37296849613
102453.63955718973
103434.39154879961
104791.97078930169
106638.03000856836
109091.4507257772
112260.97664666301
116220.00991188204
120978.64228496552
126462.52213926491
132509.82334571707
138890.74374894996
145347.23241504747
151634.92959851687
157552.0556971198
162954.07638224098
167747.90080723105
171873.86897901955
175289.89441013243
100482.86568349956
100631.35568772953
100842.81870659643
101143.99474819534
101571.82248081984
102176.28554070814
103023.41721230316
104196.96071941731
105797.27241561894
107935.48602172827
110720.73832742279
114239.69965485136
118531.13683209298
123562.20082048944
129216.26107829022
135300.33191965398
141574.44593083046
147789.1836098549
153725.44338257785
159214.99713632397
164146.4580286744
168456.69215478335
172113.09634985882
175098.4195855078
100610.42806476924
100793.44065989889
101054.61285011879
101425.38632471154
101948.61000141434
102681.37301331075
103696.95383502694
105084.92313026977
106947.63137671472
109391.09646223912
112509.08576769644
116361.11969347802
120948.79378102078
126198.07194566827
131957.10085693534
138012.0064881072
144121.62450202246
150054.726743804
155620.38151253125
160682.99914505493
165163.1938801821
169024.28841795868
172258.8604170116
174876.5298910458
100766.67792867491
100991.95517521541
101312.81720594314
101765.84094911948
102400.24662992472
103279.94048436798
104484.36387440327
106106.65009283027
108247.48648237766
111002.94514868312
114446.38063331618
118606.32019127106
123446.58230551174
128856.21040653599
134655.48885211512
140620.75132166938
146517.8520127466
152138.12463180357
157321.7054591487
161964.48418987772
166015.88108354108
169465.16688309537
172329.50028534152
174662.42062464767
100957.96639728901
101233.83659432596
101625.19968446152
102174.25680043576
102936.4950074713
103981.96899839916
105394.6345991158
107268.38309284387
109698.14653514561
112765.36254394171
116518.51736752444
120953.2023826503
125996.81466609769
131506.75345462852
137284.8936981908
143105.48079698495
148749.58125381486
154035.01161367632
158831.81015286344
163066.59032312362
166715.72138769983
169793.34521864905
172349.1317279405
174503.38298069927
101190.93780798532
101526.40070527526
102000.09687743464
102659.86339316833
103567.0647772666
104796.72418913602
106435.1793530351
108573.7800781442
111297.4891867486
114668.66258807963
118707.84880508593
123376.79408282925
128570.42002795971
134121.10189367965
139820.20145207507
145448.3381637977
150806.81733899025
155741.6290873348
160152.54215734903
163995.03331779878
167270.7728410134
170020.3339082617
172342.02225989915
101472.655203569
101877.53954952923
102446.23800869616
103231.97961267747
104301.21166206396
105732.3215132164
107611.3896866073
110023.5430342102
113039.7032273677
116699.40238752624
120993.38653931124
125851.06715914924
131138.60556732412
136671.43384233536
142238.36763117256
147632.67154434763
152679.48551450775
157253.2835586949
161283.54418606093
164751.59402119464
167682.0635803355
170148.25070902833
101810.75115310577
102295.59305509011
102972.55257292493
103899.71711275283
105147.37180626253
106795.23934019331
108926.06237107924
111615.0675670823
114915.24149119064
118840.53592215937
123351.37563136587
128347.36361636815
133671.96468621466
139131.02807701877
144517.3508474087
149642.39122150704
154357.13315470915
158564.4230012161
162219.64034575823
165326.852652901
167929.78575014145
102213.31775062667
102789.14876086584
103587.90608370678
104671.59592903384
106112.7472942538
107989.8594636829
110379.10290611732
113342.06579968138
116910.40286124093
121071.09264697155
125754.9661005863
130835.82761869935
136141.05779757848
141472.9887213112
146635.2237801576
151460.7861726934
155826.4802758793
159661.2890328647
162941.87204173135
165680.94656096594
102688.74339017583
103366.82132161397
104300.76551008027
105555.17172010927
107202.78995032949
109318.04086040836
111967.08838256345
115194.52794896312
119008.20635372718
123367.23854984021
128175.65943518242
133286.01177997456
138515.82609195006
143670.24018527401
148569.02366957857
153067.1331800882
157066.6402150287
160514.5758754033
163390.6088816776
103245.46485295835
104036.96362006322
105118.8341478964
106556.60955017942
108420.73948998693
110778.5735044227
113682.87713278343
117158.06980913831
121187.20775550541
125701.94324854252
130582.10655724775
135665.3368105584
140764.74728387556
145694.15518618192
150291.38354183963
154432.76525507343
158036.97626896985
161047.73827416508
103891.7239111208
104807.29860525327
106048.66160952447
107680.12277005184
109767.17087659735
112366.81501339683
115515.17594306786
119214.53057652892
123421.92688021633
128043.7220012319
132940.48217950354
137938.72397454304
142853.4203647565
147510.50798924972
151765.2597946405
155507.01700790154
158645.1045309043
104635.22640603785
105684.53115920883
107095.08949170283
108927.5034774945
111239.23995288619
114073.94940181443
117448.4067819173
121340.91120780996
125683.0437260375
130359.03486987612
135213.05553669596
140067.11648046295
144741.39232997797
149074.05337873782
152928.85063249685
156180.52316012417
105482.72307827527
106673.89999213676
108260.81199078649
110297.62273914184
112830.72360430974
115887.07766755189
119462.09525027586
123509.36355460368
127936.41422656852
132607.79668103645
137356.71999436768
142004.13990631545
146375.8847801813
150313.20750411367
153659.13243916622
106439.59066690775
107778.61536067766
109545.80859207727
111785.72470409804
114530.58612326982
117788.01815318715
121530.49391668057
125686.59086911383
130142.00705182095
134745.03087138815
139321.3412445128
143690.11581655973
147675.79171050203
151091.26082278477
107509.3235899135
108999.33514257902
110946.45792628574
113382.62969265944
116322.81587933985
119753.05408818347
123621.40323673369
127832.76065195641
132252.81420160513
136715.79496919297
141040.04733817483
145036.2089617189
148492.37918890448
108692.88219080785
110333.44215995212
112455.38984518815
115074.65263475805
118185.86949959258
121751.88301654262
125695.76824375083
129899.86590415529
134210.60431656652
138448.96082812734
142416.5614433077
145881.96579982433
109988.1864182139
111774.38047493844
114059.99911576933
116841.57949763535
120091.19374167453
123746.52811536347
127705.60594321319
131828.14335228776
135940.61735782065
139841.21796119702
143282.33701864467
111389.199275934
113310.85972659226
115742.05701039276
118656.88869485905
122002.25943431325
125689.29834367549
129590.13866158528
133539.75726073052
137335.15888289703
140717.84341777363
112885.2535227331
114925.77170532825
117476.35493570862
120485.43465155251
123872.29593719683
127519.29532648569
131269.70921764852
134922.9609762106
138213.25611153344
114459.90207811205
116595.08238398138
119229.24800730965
122281.57347815916
125640.62040153185
129156.21231130221
132630.6539553448
135794.73238156948
116089.75694287666
118286.28043189856
120956.20898607586
123985.93186377957
127227.25920074017
130485.53789072021
133488.87827533841
117743.09813940727
119956.2079521115
122599.3767163463
125519.06497703437
128518.56573701109
131324.16326247636
119377.5411991295
121547.73350758947
124080.16945759131
126768.23798138552
129333.13779577365
120936.72898217454
122983.987961669
125288.1002202114
127556.50240979032
122344.72126478558
124156.3388355984
126049.77937504195
123494.10965766323
124895.07197982229
124218.18134894199
SCALARS T float 1
LOOKUP_TABLE default
300.1249911879292
300.124671955913
300.17658561576695
300.12258122014526
300.1764316640125
300.252102138683
300.11900452155805
300.173501962689
300.25223934901476
300.3631513174816
300.1142127640019
300.16831263372603
300.2479333506832
300.363760013353
300.5273929784354
300.10847884315314
300.1613243800371
300.2400875856118
300.35712827354746
300.5287269711392
300.77210451355137
300.10207179362004
300.15297675914104
300.2295065340462
300.34484473678043
300.5180385090229
300.77443903686236
301.1403230727964
300.0952450544162
300.14368601628667
300.21693559075175
300.3283432669023
300.4981985634848
300.7563970203875
301.1435855103001
301.702036999381
300.0882258612454
300.13383226466993
300.2030539486331
300.3089237435293
300.47182480905997
300.7233863570784
301.1115556330673
301.70423932780835
302.5764337909313
300.0812085124748
300.1237478046395
300.1884576796298
300.2877252703174
300.4412269605303
300.68031695165683
301.0549625292082
301.6440471990144
302.56758576275786
303.9813425890724
300.07435175150795
300.11371047753255
300.17364761571514
300.2657018769818
300.40833606778824
300.63133753265595
300.9832369985964
301.543977899714
302.44705466421834
303.92018306977474
306.35948730451497
300.0677794440304
300.10394253322914
300.15902693534616
300.24361794076685
300.37468507648
300.5797175291144
300.90383752408974
301.42240289677824
302.26452836046667
303.66223518483196
306.08113534209474
310.7493117679013
300.06158364184864
300.0946138338906
300.1449058634375
300.2220569199844
300.341428934758
300.52788283222884
300.8222038552252
301.292506900555
302.0554809477653
303.31988688854364
305.494820395244
309.5759849814816
319.9857348248942
300.0558288794479
300.085847717524
300.1315118125136
300.20144428579994
300.3093967966099
300.47753354102394
300.7420392128042
301.16294500697103
301.8420179658059
302.95752952212086
304.84136004256874
308.1966526979986
314.9851485308308
328.024098244127
300.0505570328196
300.0777282302932
300.11900210798467
300.1820728343834
300.2791482027006
300.4297896381667
300.6657041578964
301.0389878903633
301.63670318127504
302.60768953606873
304.21568744330386
306.95960862404957
311.88900962745885
320.7629794855087
334.07630471038254
300.0457922342264
300.0703076035691
300.10747711213725
300.1641289333553
300.25103356780204
300.3853332472571
300.5945818916331
300.92356605475186
301.4460105809642
302.2850599785549
303.65019965996754
305.90675196570277
309.7045844748442
316.1433170259429
326.06972861720266
338.8551433095632
300.0415454324175
300.0636136689967
300.0969927742214
300.1477172978316
300.2252462637204
300.3445261381577
300.52937325001255
300.8180750462851
301.2727433104348
301.9950049175843
303.15225658781725
305.02053739933825
308.0453135311614
312.9616876673639
320.50370041371156
330.7374361265314
342.71618493123293
300.0378185427801
300.05765634335745
300.08757208198205
300.1328814973417
300.20186413369197
300.30750711427817
300.47032550074266
300.7229473814775
301.1175897078754
301.7381739700424
302.71947886596564
304.2754545769397
306.73252887820956
310.61716487057
316.5117162841392
324.69007428801245
334.78716927602255
345.8680716108011
300.03460820476107
300.052433539506
300.079214794884
300.1196225329944