# vtk DataFile Version 2.0
JuliaCFD
ASCII
DATASET UNSTRUCTURED_GRID

POINTS 1900 float
0.0 0.0 0.005
0.0 0.0416667 0.005
0.0 0.0833333 0.005
0.0 0.125 0.005
0.0 0.166667 0.005
0.0 0.208333 0.005
0.0 0.25 0.005
0.0 0.291667 0.005
0.0 0.333333 0.005
0.0 0.375 0.005
0.0 0.416667 0.005
0.0 0.458333 0.005
0.0 0.5 0.005
0.0 0.541667 0.005
0.0 0.583333 0.005
0.0 0.625 0.005
0.0 0.666667 0.005
0.0 0.708333 0.005
0.0 0.75 0.005
0.0 0.791667 0.005
0.0 0.833333 0.005
0.0 0.875 0.005
0.0 0.916667 0.005
0.0 0.958333 0.005
0.0 1.0 0.005
0.0409575 0.0 0.005
0.0409401 0.0416667 0.005
0.0409227 0.0833333 0.005
0.0409054 0.125 0.005
0.040888 0.166667 0.005
0.0408706 0.208333 0.005
0.0408532 0.25 0.005
0.0408359 0.291667 0.005
0.0408185 0.333333 0.005
0.0408011 0.375 0.005
0.0407838 0.416667 0.005
0.0407664 0.458333 0.005
0.040749 0.5 0.005
0.0407316 0.541667 0.005
0.0407143 0.583333 0.005
0.0406969 0.625 0.005
0.0406795 0.666667 0.005
0.0406621 0.708333 0.005
0.0406448 0.75 0.005
0.0406274 0.791667 0.005
0.04061 0.833333 0.005
0.0405927 0.875 0.005
0.0405753 0.916667 0.005
0.0405579 0.958333 0.005
0.0405405 1.0 0.005
0.0819149 0.0 0.005
0.0818802 0.0416667 0.005
0.0818455 0.0833333 0.005
0.0818107 0.125 0.005
0.081776 0.166667 0.005
0.0817412 0.208333 0.005
0.0817065 0.25 0.005
0.0816717 0.291667 0.005
0.081637 0.333333 0.005
0.0816022 0.375 0.005
0.0815675 0.416667 0.005
0.0815328 0.458333 0.005
0.081498 0.5 0.005
0.0814633 0.541667 0.005
0.0814285 0.583333 0.005
0.0813938 0.625 0.005
0.081359 0.666667 0.005
0.0813243 0.708333 0.005
0.0812895 0.75 0.005
0.0812548 0.791667 0.005
0.0812201 0.833333 0.005
0.0811853 0.875 0.005
0.0811506 0.916667 0.005
0.0811158 0.958333 0.005
0.0810811 1.0 0.005
0.122872 0.0 0.005
0.12282 0.0416667 0.005
0.122768 0.0833333 0.005
0.122716 0.125 0.005
0.122664 0.166667 0.005
0.122612 0.208333 0.005
0.12256 0.25 0.005
0.122508 0.291667 0.005
0.122455 0.333333 0.005
0.122403 0.375 0.005
0.122351 0.416667 0.005
0.122299 0.458333 0.005
0.122247 0.5 0.005
0.122195 0.541667 0.005
0.122143 0.583333 0.005
0.122091 0.625 0.005
0.122039 0.666667 0.005
0.121986 0.708333 0.005
0.121934 0.75 0.005
0.121882 0.791667 0.005
0.12183 0.833333 0.005
0.121778 0.875 0.005
0.121726 0.916667 0.005
0.121674 0.958333 0.005
0.121622 1.0 0.005
0.16383 0.0 0.005
0.16376 0.0416667 0.005
0.163691 0.0833333 0.005
0.163621 0.125 0.005
0.163552 0.166667 0.005
0.163482 0.208333 0.005
0.163413 0.25 0.005
0.163343 0.291667 0.005
0.163274 0.333333 0.005
0.163204 0.375 0.005
0.163135 0.416667 0.005
0.163066 0.458333 0.005
0.162996 0.5 0.005
0.162927 0.541667 0.005
0.162857 0.583333 0.005
0.162788 0.625 0.005
0.162718 0.666667 0.005
0.162649 0.708333 0.005
0.162579 0.75 0.005
0.16251 0.791667 0.005
0.16244 0.833333 0.005
0.162371 0.875 0.005
0.162301 0.916667 0.005
0.162232 0.958333 0.005
0.162162 1.0 0.005
0.204787 0.0 0.005
0.2047 0.0416667 0.005
0.204614 0.0833333 0.005
0.204527 0.125 0.005
0.20444 0.166667 0.005
0.204353 0.208333 0.005
0.204266 0.25 0.005
0.204179 0.291667 0.005
0.204092 0.333333 0.005
0.204006 0.375 0.005
0.203919 0.416667 0.005
0.203832 0.458333 0.005
0.203745 0.5 0.005
0.203658 0.541667 0.005
0.203571 0.583333 0.005
0.203484 0.625 0.005
0.203398 0.666667 0.005
0.203311 0.708333 0.005
0.203224 0.75 0.005
0.203137 0.791667 0.005
0.20305 0.833333 0.005
0.202963 0.875 0.005
0.202876 0.916667 0.005
0.20279 0.958333 0.005
0.202703 1.0 0.005
0.245745 0.0 0.005
0.245641 0.0416667 0.005
0.245536 0.0833333 0.005
0.245432 0.125 0.005
0.245328 0.166667 0.005
0.245224 0.208333 0.005
0.245119 0.25 0.005
0.245015 0.291667 0.005
0.244911 0.333333 0.005
0.244807 0.375 0.005
0.244703 0.416667 0.005
0.244598 0.458333 0.005
0.244494 0.5 0.005
0.24439 0.541667 0.005
0.244286 0.583333 0.005
0.244181 0.625 0.005
0.244077 0.666667 0.005
0.243973 0.708333 0.005
0.243869 0.75 0.005
0.243764 0.791667 0.005
0.24366 0.833333 0.005
0.243556 0.875 0.005
0.243452 0.916667 0.005
0.243347 0.958333 0.005
0.243243 1.0 0.005
0.286702 0.0 0.005
0.286581 0.0416667 0.005
0.286459 0.0833333 0.005
0.286337 0.125 0.005
0.286216 0.166667 0.005
0.286094 0.208333 0.005
0.285973 0.25 0.005
0.285851 0.291667 0.005
0.285729 0.333333 0.005
0.285608 0.375 0.005
0.285486 0.416667 0.005
0.285365 0.458333 0.005
0.285243 0.5 0.005
0.285121 0.541667 0.005
0.285 0.583333 0.005
0.284878 0.625 0.005
0.284757 0.666667 0.005
0.284635 0.708333 0.005
0.284513 0.75 0.005
0.284392 0.791667 0.005
0.28427 0.833333 0.005
0.284149 0.875 0.005
0.284027 0.916667 0.005
0.283905 0.958333 0.005
0.283784 1.0 0.005
0.32766 0.0 0.005
0.327521 0.0416667 0.005
0.327382 0.0833333 0.005
0.327243 0.125 0.005
0.327104 0.166667 0.005
0.326965 0.208333 0.005
0.326826 0.25 0.005
0.326687 0.291667 0.005
0.326548 0.333333 0.005
0.326409 0.375 0.005
0.32627 0.416667 0.005
0.326131 0.458333 0.005
0.325992 0.5 0.005
0.325853 0.541667 0.005
0.325714 0.583333 0.005
0.325575 0.625 0.005
0.325436 0.666667 0.005
0.325297 0.708333 0.005
0.325158 0.75 0.005
0.325019 0.791667 0.005
0.32488 0.833333 0.005
0.324741 0.875 0.005
0.324602 0.916667 0.005
0.324463 0.958333 0.005
0.324324 1.0 0.005
0.368617 0.0 0.005
0.368461 0.0416667 0.005
0.368305 0.0833333 0.005
0.368148 0.125 0.005
0.367992 0.166667 0.005
0.367835 0.208333 0.005
0.367679 0.25 0.005
0.367523 0.291667 0.005
0.367366 0.333333 0.005
0.36721 0.375 0.005
0.367054 0.416667 0.005
0.366897 0.458333 0.005
0.366741 0.5 0.005
0.366585 0.541667 0.005
0.366428 0.583333 0.005
0.366272 0.625 0.005
0.366116 0.666667 0.005
0.365959 0.708333 0.005
0.365803 0.75 0.005
0.365647 0.791667 0.005
0.36549 0.833333 0.005
0.365334 0.875 0.005
0.365178 0.916667 0.005
0.365021 0.958333 0.005
0.364865 1.0 0.005
0.409575 0.0 0.005
0.409401 0.0416667 0.005
0.409227 0.0833333 0.005
0.409054 0.125 0.005
0.40888 0.166667 0.005
0.408706 0.208333 0.005
0.408532 0.25 0.005
0.408359 0.291667 0.005
0.408185 0.333333 0.005
0.408011 0.375 0.005
0.407838 0.416667 0.005
0.407664 0.458333 0.005
0.40749 0.5 0.005
0.407316 0.541667 0.005
0.407143 0.583333 0.005
0.406969 0.625 0.005
0.406795 0.666667 0.005
0.406621 0.708333 0.005
0.406448 0.75 0.005
0.406274 0.791667 0.005
0.4061 0.833333 0.005
0.405927 0.875 0.005
0.405753 0.916667 0.005
0.405579 0.958333 0.005
0.405405 1.0 0.005
0.450532 0.0 0.005
0.450341 0.0416667 0.005
0.45015 0.0833333 0.005
0.449959 0.125 0.005
0.449768 0.166667 0.005
0.449577 0.208333 0.005
0.449386 0.25 0.005
0.449195 0.291667 0.005
0.449003 0.333333 0.005
0.448812 0.375 0.005
0.448621 0.416667 0.005
0.44843 0.458333 0.005
0.448239 0.5 0.005
0.448048 0.541667 0.005
0.447857 0.583333 0.005
0.447666 0.625 0.005
0.447475 0.666667 0.005
0.447284 0.708333 0.005
0.447093 0.75 0.005
0.446901 0.791667 0.005
0.44671 0.833333 0.005
0.446519 0.875 0.005
0.446328 0.916667 0.005
0.446137 0.958333 0.005
0.445946 1.0 0.005
0.49149 0.0 0.005
0.491281 0.0416667 0.005
0.491073 0.0833333 0.005
0.490864 0.125 0.005
0.490656 0.166667 0.005
0.490447 0.208333 0.005
0.490239 0.25 0.005
0.49003 0.291667 0.005
0.489822 0.333333 0.005
0.489613 0.375 0.005
0.489405 0.416667 0.005
0.489197 0.458333 0.005
0.488988 0.5 0.005
0.48878 0.541667 0.005
0.488571 0.583333 0.005
0.488363 0.625 0.005
0.488154 0.666667 0.005
0.487946 0.708333 0.005
0.487737 0.75 0.005
0.487529 0.791667 0.005
0.48732 0.833333 0.005
0.487112 0.875 0.005
0.486903 0.916667 0.005
0.486695 0.958333 0.005
0.486486 1.0 0.005
0.531954 0.00563435 0.005
0.531749 0.0470663 0.005
0.531544 0.0884982 0.005
0.531338 0.12993 0.005
0.531133 0.171362 0.005
0.530928 0.212794 0.005
0.530722 0.254226 0.005
0.530517 0.295658 0.005
0.530312 0.33709 0.005
0.530107 0.378521 0.005
0.529901 0.419953 0.005
0.529696 0.461385 0.005
0.529491 0.502817 0.005
0.529285 0.544249 0.005
0.52908 0.585681 0.005
0.528875 0.627113 0.005
0.528669 0.668545 0.005
0.528464 0.709977 0.005
0.528259 0.751409 0.005
0.528054 0.79284 0.005
0.527848 0.834272 0.005
0.527643 0.875704 0.005
0.527438 0.917136 0.005
0.527232 0.958568 0.005
0.527027 1.0 0.005
0.572289 0.0127465 0.005
0.572093 0.0538821 0.005
0.571896 0.0950177 0.005
0.571699 0.136153 0.005
0.571502 0.177289 0.005
0.571306 0.218424 0.005
0.571109 0.25956 0.005
0.570912 0.300695 0.005
0.570715 0.341831 0.005
0.570519 0.382967 0.005
0.570322 0.424102 0.005
0.570125 0.465238 0.005
0.569928 0.506373 0.005
0.569732 0.547509 0.005
0.569535 0.588644 0.005
0.569338 0.62978 0.005
0.569142 0.670916 0.005
0.568945 0.712051 0.005
0.568748 0.753187 0.005
0.568551 0.794322 0.005
0.568355 0.835458 0.005
0.568158 0.876593 0.005
0.567961 0.917729 0.005
0.567764 0.958864 0.005
0.567568 1.0 0.005
0.612625 0.0198587 0.005
0.612436 0.0606979 0.005
0.612248 0.101537 0.005
0.61206 0.142376 0.005
0.611872 0.183216 0.005
0.611684 0.224055 0.005
0.611496 0.264894 0.005
0.611307 0.305733 0.005
0.611119 0.346572 0.005
0.610931 0.387412 0.005
0.610743 0.428251 0.005
0.610555 0.46909 0.005
0.610366 0.509929 0.005
0.610178 0.550769 0.005
0.60999 0.591608 0.005
0.609802 0.632447 0.005
0.609614 0.673286 0.005
0.609425 0.714125 0.005
0.609237 0.754965 0.005
0.609049 0.795804 0.005
0.608861 0.836643 0.005
0.608673 0.877482 0.005
0.608484 0.918322 0.005
0.608296 0.959161 0.005
0.608108 1.0 0.005
0.65296 0.0269708 0.005
0.65278 0.0675137 0.005
0.652601 0.108057 0.005
0.652421 0.148599 0.005
0.652241 0.189142 0.005
0.652062 0.229685 0.005
0.651882 0.270228 0.005
0.651702 0.310771 0.005
0.651523 0.351314 0.005
0.651343 0.391857 0.005
0.651164 0.4324 0.005
0.650984 0.472943 0.005
0.650804 0.513485 0.005
0.650625 0.554028 0.005
0.650445 0.594571 0.005
0.650265 0.635114 0.005
0.650086 0.675657 0.005
0.649906 0.7162 0.005
0.649726 0.756743 0.005
0.649547 0.797286 0.005
0.649367 0.837828 0.005
0.649188 0.878371 0.005
0.649008 0.918914 0.005
0.648828 0.959457 0.005
0.648649 1.0 0.005
0.693295 0.034083 0.005
0.693124 0.0743295 0.005
0.692953 0.114576 0.005
0.692782 0.154823 0.005
0.692611 0.195069 0.005
0.69244 0.235316 0.005
0.692269 0.275562 0.005
0.692098 0.315809 0.005
0.691926 0.356055 0.005
0.691755 0.396302 0.005
0.691584 0.436548 0.005
[...]
CELL_DATA 888
SCALARS P float 1
LOOKUP_TABLE default
100136.5135884851
100136.17202900717
100192.66597071914
100133.82362963022
100192.53919949642
100274.86954391905
100129.79299441761
100189.27516232828
100275.13216047878
100395.52046792657
100124.38712572264
100183.4594654056
100270.38699527303
100396.44714371381
100573.18266587786
100117.91498854345
100175.61217658361
100261.65607389386
100389.24315172575
100575.2168463858
100836.01179729804
100110.68124595321
100166.22850829274
100249.84309783136
100375.69758499369
100563.81339301099
100839.81326506344
101227.59794320141
100102.97310157774
100155.77748674306
100235.78306248835
100357.41094996632
100542.18463307654
100820.96874696485
101233.87004403055
101817.7711058426
100095.04826979386
100144.68796656703
100220.23702225719
100335.82955287422
100513.22937868841
100785.47703643715
101201.16679257923
101826.05306921837
102725.15559047427
100087.1272530417
100133.3355023421
100203.8742661955
100312.2217787905
100479.49742963773
100738.72511192774
101141.26655654231
101765.8465356387
102728.22204055462
104171.6214823897
100079.39025480968
100122.03466647545
100187.2588305166
100287.65337667163
100443.12422933035
100685.25387442471
101064.41544787843
101661.60964988466
102609.1826936861
104131.69471496185
106637.00877177222
100071.97783568065
100111.03749908415
100170.84633255057
100262.98229961266
100405.81340071706
100628.65351226325
100978.70830374057
101533.12694313771
102421.59655122586
103876.35934518026
106382.38949856967
111376.41949376964
100064.99430411214
100100.53685503377
100154.98860729003
100238.8672646225
100368.85795398835
100571.60790301608
100890.08135112323
101394.60802772324
102203.45467351413
103526.79630606044
105787.865657789
110115.99444919897
122470.65548115045
100058.51254255763
100090.67281619764
100139.94449351272
100215.7918534593
100333.19497972573
100516.0192624503
100802.62162664125
101255.4608372087
101978.48738076743
103151.9526739069
105116.54398984653
108645.05416024986
116223.04175797079
132746.25979006395
100052.57950639246
100081.54072869911
100125.893662432
100194.09145046154
100299.46458055257
100463.16057626475
100718.98125106045
101121.51505849979
101760.3562538984
102786.71437540266
104469.95649876496
107344.0040183068
112668.13957698435
123043.18752829035
140786.94804170486
100047.22181474838
100073.19959309262
100112.95108057129
100173.98162308421
100268.07427050773
100413.82503179787
100640.75834352322
100996.11377206688
101556.31294857696
102447.16093943166
103882.24555833531
106244.9785573346
110278.76544598356
117448.49521420781
129560.03749011844
147296.27144197404
100042.4509581929
100065.68044464682
100101.18098802665
100155.58524793517
100239.25498352123
100368.4502435685
100568.80532854986
100880.94998064892
101369.72204993386
102139.59392184722
103361.44933245791
105321.44545394216
108510.23349397343
113831.90806650484
122507.53117724416
135485.50020676077
152649.78332429135
100038.26805188534
100058.99372689886
100090.60976802158
100138.95521301561
100213.1062295747
100327.22253238194
100503.47003746803
100776.66223322197
101201.67256023988
101865.34363845119
102905.7300909216
104543.22130219045
107127.74940801924
111268.3664610866
117797.46737894572
127519.04375892183
140770.179943382
157076.8553539127
100034.66814686275
100053.136040168
100081.23697120509
100124.09520359169
100189.63660071675
100290.15475876986
100444.76387061857
100683.22851314973
101051.95443055256
101623.27914931154
102509.7364609777
103885.12538377433
106012.49805196487
109331.82998313982
114437.40982894714
121956.64598705426
132307.2983173566
145436.9936168201
160735.7695237259
100031.64404243478
100048.09612250952
100073.04474525437
100110.97539122899
100168.79254715992
100257.14703703177
100392.49006907958
100600.24219757238
100919.65050992074
101411.13378680644
102167.11930365991
103327.0866362889
105095.91543217297
107807.70354353565
111908.28983124152
117889.19705517296
126142.76167382779
136781.76590913904
149528.64626536614
163745.77208208368
100029.19006893574
100043.86021625328
100066.00648531159
100099.54679312359
100150.48414840297
100228.03070985396
100346.32984026374
100527.08240720759
100803.50262738489
101226.1939254654
101871.55042402059
102852.98471845088
104333.92919818423
106576.88204822422
109929.87369036372
114787.84655122887
121500.50234879635
130238.68337572264
140900.51358196785
153092.40905339425
166201.58679166436
100027.30635244356
100040.41747790328
100060.09407573985
100089.75179472197
100134.60162997147
100202.60185520383
100305.90316939201
100463.02860686295
100702.11911418806
101065.66555184197
101617.1546740538
102449.71478442888
103695.92746216785
105566.66129903006
108341.40550232318
112345.35304823592
117888.90075516516
125165.97559778276
134165.52018184462
144648.56491078803
156174.9935832169
168181.77419072264
100026.00450303682
100037.76649562862
100055.28569403617
100081.53532078944
100121.03265091644
100180.64596332436
100270.81001562349
100407.33923862799
100614.10188583979
100926.87000967785
101398.6460237075
102106.48604294295
103159.23684340403
104728.83984040303
107044.01805463186
110377.07886171037
115004.60694921314
121130.00335027423
128801.23724901571
137872.51950132486
148026.58333779348
158821.21938212262
169753.53747899245
100025.31720800886
100035.92464730212
100051.57555451017
100074.85503854991
100109.67455590004
100161.95714796144
100240.66077539902
100359.29317038247
100538.12423825212
100807.34050236086
101211.36413726308
101814.34295414608
102706.42549288156
104029.29577806473
105972.31053821591
108765.9722372719
112656.86658508235
117850.05511621285
124436.32657601329
132341.21749523937
141328.56395286467
151045.29276663266
161073.79516313662
170975.62260207298
100034.94436384592
100048.9882456876
100069.6956064018
100100.4498433967
100146.35488792563
100215.09926642665
100318.22570949601
100472.96888611153
100704.85654574407
101051.24710151498
101565.81668851696
102323.73266185784
103442.57099332548
105080.382496715
107433.35190305146
110720.70498612197
115143.284802155
120822.29385752676
127743.11652494894
135737.49589395183
144516.18781958605
153720.5507181784
162972.83278637147
171897.02729953796
100047.60380637292
100066.08944604783
100093.32450918741
100133.70326568221
100193.82282912698
100283.54946484142
100417.55323198398
100617.46611103023
100914.80067277291
101354.65420887347
102000.0490098543
102949.07727795548
104334.36130949896
106323.32999528786
109110.03326819043
112886.25042578051
117792.72025748459
123864.18801059747
130996.05306430646
138955.08386302876
147428.27485108018
156072.1603797707
164555.4168076546
172563.39319948418
100064.15324848541
100088.33828978073
100123.93612196669
100176.60319649661
100254.77422991251
100370.94780220411
100543.48580361488
100799.03964508032
101175.63530724961
101726.34065381529
102533.3429271309
103708.32523890313
105394.37615220732
107762.40675673138
110991.7555897609
115233.03800068285
120559.0787102983
126923.60354423196
134151.4051530929
141970.19925245736
150065.12817893253
158121.53115545938
165857.20342193363
173010.0100859838
100085.65525583937
100117.09769075736
100163.32153823423
100231.53441560882
100332.39064998268
100481.49837634027
100701.44848477998
101024.40065146185
101495.20803340652
102182.96008504428
103181.96654711849
104614.6015928355
106630.6575208294
109394.9740134349
113060.32991633276
117726.29868196571
123396.51177721386
129954.39344703987
137174.6886045897
144767.97581244117
152432.67988649182
159891.64282114463
166907.97913382712
173272.37890268365
100113.41271085122
100154.02136675737
100213.62868497366
100301.31493128852
100430.35957962439
100619.94604926839
100897.34306232486
101300.57907441765
101887.88463530858
102739.09057522775
103958.88663662276
105677.97801128014
108045.89390275058
111211.70097622149
115291.51309556287
120328.63525739811
126261.44150520886
132917.27860935987
140040.0318533917
147340.65363792863
154540.89035595662
161404.84073118662
167739.23870558233
173377.6620612197
100149.00493395644
100201.0922881767
100277.39912439433
100389.22363132429
100552.87463454963
100791.51918359702
101137.48146059364
101639.96711075005
102366.6561590513
103407.12166658431
104875.06549567312
106904.60826587855
109637.24441568348
113197.1607889408
117656.66363314966
123001.84861919566
129114.00911770374
135779.61197708885
142728.83604474866
149685.27533959167
156402.1173205991
162683.09320851217
168375.89856141253
173355.46045535224
100194.32501534386
100260.6581187003
100357.59849358675
100499.01241280584
100704.60878968
101001.91160115362
101432.5848913015
102054.09416177036
102943.0855640925
104198.20971366769
105938.74955556533
108296.2628329916
111396.45232399968
115330.93056252219
120124.34705823434
125708.6905125769
131918.70918883398
138515.1629774816
145228.7380056719
151804.4651610701
158030.49530390018
163748.6731452937
168844.4986937039
173224.46098746065
100251.6148023039
100335.46424088583
100457.63835340035
100634.90358621537
100890.72702876234
101260.42628332853
101792.85675990317
102553.61521798618
103628.11108825612
105121.71368383267
107154.82798738641
109850.0966594759
113310.16673163867
117588.64577798393
122661.83668011735
128413.86434610948
134644.87462231796
141104.0229041351
147532.68678854595
153703.36939820595
159440.94205432644
164623.11321980454
169167.32980371342
173012.6466151842
100323.49955565526
100428.6827368731
100581.39259848712
100801.62648969787
101119.34891720478
101576.11316612097
102228.05229321583
103148.97744337269
104431.50006672816
106184.49495439423
108524.43654008751
111558.63342451135
115360.71274897915
119943.19310016262
125236.45294025954
131085.18668995646
137266.8813377052
143530.42694113415
149637.3600042708
155390.74229996104
160650.07255776646
165326.9520467435
169367.52004513805
172737.17600837964
100413.0194156554
100543.93946418997
100733.24542816338
101006.34132044934
101398.54180832737
101957.861752799
102747.98094383262
103849.95855792546
105361.31125951326
107390.51182787398
110044.7451966166
113410.11084229901
117526.83068518621
122365.8798182394
127816.61962432563
133693.40722548167
139763.81884525655
145785.17441341077
151543.84048776363
156875.95319557216
161674.04160319347
165879.74820431756
169466.39852128003
172424.30357986
100523.66444564314
100685.37393110966
100919.6065522337
101256.28341368241
101736.3968943679
102414.7900421325
103362.13340528472
104665.14858506438
106423.36146941796
108740.44251576375
111708.90844167417
115388.81465314745
119784.59770595033
124827.45905452639
130372.6450809651
136214.2040510392
142118.5318144445
147860.78467816924
153255.06373037107
158169.67242414597
162529.35413466985
166302.303260858
169487.30999085013
172101.86964430328
100659.4388514971
100858.85105286475
101147.04165747119
101558.84573710691
102141.35335204238
102955.95957530664
104079.29118517104
105601.57000789676
107620.84388271051
110231.38073495797
113506.23781648079
117475.7971581182
122108.20182015582
127299.07007270973
132876.68801037615
138625.6180828131
144319.09623412008
149754.38256317342
154776.20215664912
159284.19635299905
163232.13219373583
166614.42648141948
169454.91312082068
171815.2229336871
100825.9079686361
101070.45459528187
101422.366322559
101921.83731450695
102621.95544119668
103590.03035733776
104907.07967227693
106664.16190547142
108953.96745189016
111856.9206709405
115422.41968747051
119649.38420774859
124471.03781349004
129752.5433737424
135304.4192373918
140909.20868225224
146355.00468455072
151465.10166109793
156113.66913485745
160231.3498971528
163799.0299514769
166836.51224887485
169400.52744798528
171618.8362452339
101028.87383417044
101326.56568671373
101752.85055686184
102353.29189249028
103186.60613282795
104324.90204531637
105851.57164489965
107855.39715812494
110419.73779923338
113606.9958814762
117440.04956911331
121885.55280904131
126845.66974591043
132161.51968359097
137633.48697472247
143050.32347241556
148219.92650741187
152993.2678508931
157274.17612921668
161022.41347443545
164244.5464214834
166987.25393308687
169355.301788667
101274.47421952228
101634.02872548586
102146.0507895537
102861.24281114529
103843.20124064005
105167.32620093694
106916.90636395359
109174.99277867153
112011.80280862842
115468.22846354567
119538.92558859539
124159.80217227615
129205.54324141909
134501.03221201475
139844.218640194
145036.17400883877
149908.16416472575
154339.1703297347
158263.09067466584
161665.7049748666
164576.94529508302
167075.69234491367
101569.30537626316
102000.0278835506
102609.6300889725
103453.45122147663
104598.80509137656
106122.48647364552
108104.80609440044
110619.65821258487
113720.50152633617
117424.17679904474
121696.69659704232
126445.67831590935
131524.1572245346
136747.87319387225
141918.62918345467
146855.2620923936
151414.30425023995
155503.2227736023
159081.89697587254
162159.13011665546
164783.48369189462
101920.31543084208
102431.9015540978
103151.11805982844
104137.06658185992
105459.29467456578
107193.6186225275
109414.3717661927
112182.83350103404
115532.56712085853
119455.13085725423
123888.63118707166
128716.24600809708
133775.70819201914
138879.3986576297
143839.61571045092
148496.25611828757
152731.22894924233
156478.48490979784
159719.11047933003
162470.12074846003
102334.65294573829
102936.9437004869
103777.6172652853
104918.3067306415
106428.92612646532
108381.67890919844
110841.76162145499
113854.76429185495
117432.0960878856
121539.24214664372
126089.1167743928
130944.7621660966
135934.55595782798
140873.5847979736
145589.87132788
149944.61084976775
153845.16054351887
157243.31199546615
160122.66673347875
102819.44479217476
103522.15019234181
104495.48970120717
105802.10541613768
107509.96557733166
109684.92070422058
112379.93224473955
115621.98327612503
119399.49911061069
123652.30455414108
128270.55246274074
133103.21906167653
137974.45677415532
142707.72706948334
147148.51996195526
151179.0745220186
154723.33680119412
157729.0786418781
103381.58407779678
104193.90547637871
105310.03588439131
106791.6513306628
108702.34992672176
111098.6549502406
114018.33392002614
117468.0161825923
121412.02529353302
125766.59139050411
130403.7931899261
135162.02858193603
139867.2206518678
144354.4764481577
148486.02948757584
152157.21753987836
155281.71601694488
104027.44003524494
104957.66080718902
106225.03941397896
107888.02772892942
110003.07478180737
112614.65925654209
115742.92017364409
119372.46472939674
123444.05277256116
127853.29599024334
132456.7895519779
137088.62124212942
141579.59502290867
145776.3006663462
149549.31486887156
152778.45978705105
104762.51078724663
105817.57463806875
107242.43102679754
109089.84085845153
111406.36028258427
114221.40136164999
117535.67757150863
121311.11488632276
125466.21636416733
129878.17745735531
134393.178558254
138844.15449596118
143066.96777898687
146910.75150046748
150224.67609965202
105591.08790671402
106776.06530415046
108361.8570223575
110392.67616605779
112902.40748485528
115903.01994061444
119374.38189764769
123255.4300432626
127444.42302805228
131803.22100458047
136170.69110183718
140377.60351506068
144257.63238772386
147631.09635514204
106515.85657784974
107833.41341850301
109579.95494907121
111788.46392513959
114477.37987029953
117639.20329042534
121231.5579607551
125171.57990482294
129338.83010070847
133581.68824561036
137731.55277548925
141609.87666274683
145013.62221860865
107537.38219689425
108987.19642544995
110890.35097209833
113265.54742674915
116113.0055382073
119404.28724043253
123074.16542773697
127018.88267418384
131099.70711835494
135151.9556411048
138989.75813222295
142392.09571240103
108653.74171333911
110231.7858706553
112282.37288292417
114806.88300502907
117785.28291374352
121166.30008236499
124861.65654130082
128746.3223733753
132662.19454424418
136421.61134556984
139789.06122608238
109859.79195527568
111557.74030141503
113740.83866721173
116390.38064617827
119463.63556948194
122885.05334609789
126542.21607278693
130286.35181789189
133930.1194401161
137228.90083126223
111146.6675595435
112950.91140880104
115244.8809743655
117986.79135626873
121108.81778907334
124508.76908957468
128046.80667849262
131539.29830942643
134736.17218324545
112500.82882559861
114391.52296361177
116766.67044958257
119557.98415541557
122669.38540755873
125968.0414142038
129274.33454875562
132336.54245363537
113903.09913284228
115852.81308972527
118269.15959985353
121053.86660280677
124076.47234636698
127161.35715094444
130055.84213976761
115327.45580291082
117299.04600486885
119703.77989713546
122406.27147742761
125229.7845225841
127921.43603630779
116738.89404744604
118682.38227841089
121003.32518353168
123516.10440905717
125964.36902842618
118090.33246885035
119937.35921588924
122071.13937071063
124223.3291704375
119317.24576175229
120969.30053182637
122751.1172318645
120326.23243123258
121626.00214145004
120968.18289593875
SCALARS T float 1
LOOKUP_TABLE default
300.11782854041786
300.1175150504263
300.16674847395416
300.1154637802302
300.16659666019086
300.2387686446112
300.1119557237777
300.1637198894767
300.2389015622259
300.34524842937896
300.10725802228507
300.15862615720494
300.23466709428124
300.3458428292745
300.50351551138834
300.10163996261963
300.1517698448813
300.226955401401
300.33930952865916
300.50482053475736
300.74040729681565
300.0953669459329
300.14358482876764
300.21656062462324
300.3272162308094
300.49427108167293
300.7426921887572
301.09837958863193
300.08868875583585
300.1344818936695
300.2042191037989
300.31098012910763
300.47470528231645
300.7248526881664
301.10156497426647
301.64666194805943
300.08182901912426
300.124835827378
300.19060162293556
300.2918866073545
300.4487138815953
300.69224436060904
301.06984075370923
301.64875504997616
302.5034807150949
300.0749785494512
300.11497378000894
300.17629631489046
300.2710616482083
300.4185832184758
300.6497329145892
301.01384975187887
301.58904169779703
302.4944986554248
303.8855307644899
300.06829279212127
300.1051686953648
300.161796557236
300.2494473066692
300.3862237333727
300.60142908090165
300.9429487606318
301.48989020454417
302.37474372043357
303.82426035922254
306.2344258840074
300.0618925445883
300.0956382443086
300.14749860473546
300.2277970571329
300.3531501861077
300.5505698215565
300.8645342018828
301.3695460293099
302.1936346231365
303.5675984354912
305.9561356927357
310.58819216273014
300.05586704184714
300.0865480676487
300.13370633659883
300.20668456255066
300.3205016273065
300.4995535415004
300.7839949535823
301.2410930868987
301.98643123949483
303.2274377073763
305.37192700659654
309.41536514702767
319.7838306061708
300.0502782592247
300.07801765851144
300.12064141657845
300.1865265449182
300.28909336921663
300.45005726977166
300.7049932550704
301.1131084966039
301.77508010270293
302.867819788631
304.72175566939234
308.0391971726818
314.7837556922882
327.7801700922246
300.0451657651303
300.07012759216866
300.1084560060344
300.1676080492678
300.2594730164616
300.4031817497758
300.6298568616089
300.99080341701466
301.5720300530852
302.5210351521712
304.1000390159343
306.8067580818198
311.6913216193244
320.51760708756206
333.7887584971253
300.0405516203842
300.0629269898244
300.09724586284347
300.1501086253304
300.2319807005576
300.3595930532928
300.55994274809865
300.8770630944317
301.38367245132724
302.2016181539615
303.53885661517927
305.7592987162411
309.5125238782177
315.900652913985
325.7776075801281
338.5215231433849
300.0364449172308
300.05644090428524
300.08706285129944
300.13412700216975
300.2068009394297
300.3196395817396
300.4959307759726
300.7732485886255
301.2127508190332
301.91482476391946
303.0453652934287
304.8788825235569
307.8599889993699
312.7246600028535
320.211981881263
330.39557095767367
342.33357180383814
300.03284590300177
300.05067677520435
300.0779263419923
300.1197015210294
300.1840039959116
300.28344896067694
300.4380512943096
300.679765897139
301.0599100017141
301.6612298672295
302.6170517744664
304.1397474648288
306.5545282960119
310.3876136698351
316.22444216919837
324.3454761348735
334.39226382305264
345.4332269629764
300.0297497049759
300.0456302990612
300.06983289169864