# vtk DataFile Version 2.0
JuliaCFD
ASCII
DATASET UNSTRUCTURED_GRID

POINTS 1900 float
0.0 0.0 0.005
0.0 0.0416667 0.005
0.0 0.0833333 0.005
0.0 0.125 0.005
0.0 0.166667 0.005
0.0 0.208333 0.005
0.0 0.25 0.005
0.0 0.291667 0.005
0.0 0.333333 0.005
0.0 0.375 0.005
0.0 0.416667 0.005
0.0 0.458333 0.005
0.0 0.5 0.005
0.0 0.541667 0.005
0.0 0.583333 0.005
0.0 0.625 0.005
0.0 0.666667 0.005
0.0 0.708333 0.005
0.0 0.75 0.005
0.0 0.791667 0.005
0.0 0.833333 0.005
0.0 0.875 0.005
0.0 0.916667 0.005
0.0 0.958333 0.005
0.0 1.0 0.005
0.0409575 0.0 0.005
0.0409401 0.0416667 0.005
0.0409227 0.0833333 0.005
0.0409054 0.125 0.005
0.040888 0.166667 0.005
0.0408706 0.208333 0.005
0.0408532 0.25 0.005
0.0408359 0.291667 0.005
0.0408185 0.333333 0.005
0.0408011 0.375 0.005
0.0407838 0.416667 0.005
0.0407664 0.458333 0.005
0.040749 0.5 0.005
0.0407316 0.541667 0.005
0.0407143 0.583333 0.005
0.0406969 0.625 0.005
0.0406795 0.666667 0.005
0.0406621 0.708333 0.005
0.0406448 0.75 0.005
0.0406274 0.791667 0.005
0.04061 0.833333 0.005
0.0405927 0.875 0.005
0.0405753 0.916667 0.005
0.0405579 0.958333 0.005
0.0405405 1.0 0.005
0.0819149 0.0 0.005
0.0818802 0.0416667 0.005
0.0818455 0.0833333 0.005
0.0818107 0.125 0.005
0.081776 0.166667 0.005
0.0817412 0.208333 0.005
0.0817065 0.25 0.005
0.0816717 0.291667 0.005
0.081637 0.333333 0.005
0.0816022 0.375 0.005
0.0815675 0.416667 0.005
0.0815328 0.458333 0.005
0.081498 0.5 0.005
0.0814633 0.541667 0.005
0.0814285 0.583333 0.005
0.0813938 0.625 0.005
0.081359 0.666667 0.005
0.0813243 0.708333 0.005
0.0812895 0.75 0.005
0.0812548 0.791667 0.005
0.0812201 0.833333 0.005
0.0811853 0.875 0.005
0.0811506 0.916667 0.005
0.0811158 0.958333 0.005
0.0810811 1.0 0.005
0.122872 0.0 0.005
0.12282 0.0416667 0.005
0.122768 0.0833333 0.005
0.122716 0.125 0.005
0.122664 0.166667 0.005
0.122612 0.208333 0.005
0.12256 0.25 0.005
0.122508 0.291667 0.005
0.122455 0.333333 0.005
0.122403 0.375 0.005
0.122351 0.416667 0.005
0.122299 0.458333 0.005
0.122247 0.5 0.005
0.122195 0.541667 0.005
0.122143 0.583333 0.005
0.122091 0.625 0.005
0.122039 0.666667 0.005
0.121986 0.708333 0.005
0.121934 0.75 0.005
0.121882 0.791667 0.005
0.12183 0.833333 0.005
0.121778 0.875 0.005
0.121726 0.916667 0.005
0.121674 0.958333 0.005
0.121622 1.0 0.005
0.16383 0.0 0.005
0.16376 0.0416667 0.005
0.163691 0.0833333 0.005
0.163621 0.125 0.005
0.163552 0.166667 0.005
0.163482 0.208333 0.005
0.163413 0.25 0.005
0.163343 0.291667 0.005
0.163274 0.333333 0.005
0.163204 0.375 0.005
0.163135 0.416667 0.005
0.163066 0.458333 0.005
0.162996 0.5 0.005
0.162927 0.541667 0.005
0.162857 0.583333 0.005
0.162788 0.625 0.005
0.162718 0.666667 0.005
0.162649 0.708333 0.005
0.162579 0.75 0.005
0.16251 0.791667 0.005
0.16244 0.833333 0.005
0.162371 0.875 0.005
0.162301 0.916667 0.005
0.162232 0.958333 0.005
0.162162 1.0 0.005
0.204787 0.0 0.005
0.2047 0.0416667 0.005
0.204614 0.0833333 0.005
0.204527 0.125 0.005
0.20444 0.166667 0.005
0.204353 0.208333 0.005
0.204266 0.25 0.005
0.204179 0.291667 0.005
0.204092 0.333333 0.005
0.204006 0.375 0.005
0.203919 0.416667 0.005
0.203832 0.458333 0.005
0.203745 0.5 0.005
0.203658 0.541667 0.005
0.203571 0.583333 0.005
0.203484 0.625 0.005
0.203398 0.666667 0.005
0.203311 0.708333 0.005
0.203224 0.75 0.005
0.203137 0.791667 0.005
0.20305 0.833333 0.005
0.202963 0.875 0.005
0.202876 0.916667 0.005
0.20279 0.958333 0.005
0.202703 1.0 0.005
0.245745 0.0 0.005
0.245641 0.0416667 0.005
0.245536 0.0833333 0.005
0.245432 0.125 0.005
0.245328 0.166667 0.005
0.245224 0.208333 0.005
0.245119 0.25 0.005
0.245015 0.291667 0.005
0.244911 0.333333 0.005
0.244807 0.375 0.005
0.244703 0.416667 0.005
0.244598 0.458333 0.005
0.244494 0.5 0.005
0.24439 0.541667 0.005
0.244286 0.583333 0.005
0.244181 0.625 0.005
0.244077 0.666667 0.005
0.243973 0.708333 0.005
0.243869 0.75 0.005
0.243764 0.791667 0.005
0.24366 0.833333 0.005
0.243556 0.875 0.005
0.243452 0.916667 0.005
0.243347 0.958333 0.005
0.243243 1.0 0.005
0.286702 0.0 0.005
0.286581 0.0416667 0.005
0.286459 0.0833333 0.005
0.286337 0.125 0.005
0.286216 0.166667 0.005
0.286094 0.208333 0.005
0.285973 0.25 0.005
0.285851 0.291667 0.005
0.285729 0.333333 0.005
0.285608 0.375 0.005
0.285486 0.416667 0.005
0.285365 0.458333 0.005
0.285243 0.5 0.005
0.285121 0.541667 0.005
0.285 0.583333 0.005
0.284878 0.625 0.005
0.284757 0.666667 0.005
0.284635 0.708333 0.005
0.284513 0.75 0.005
0.284392 0.791667 0.005
0.28427 0.833333 0.005
0.284149 0.875 0.005
0.284027 0.916667 0.005
0.283905 0.958333 0.005
0.283784 1.0 0.005
0.32766 0.0 0.005
0.327521 0.0416667 0.005
0.327382 0.0833333 0.005
0.327243 0.125 0.005
0.327104 0.166667 0.005
0.326965 0.208333 0.005
0.326826 0.25 0.005
0.326687 0.291667 0.005
0.326548 0.333333 0.005
0.326409 0.375 0.005
0.32627 0.416667 0.005
0.326131 0.458333 0.005
0.325992 0.5 0.005
0.325853 0.541667 0.005
0.325714 0.583333 0.005
0.325575 0.625 0.005
0.325436 0.666667 0.005
0.325297 0.708333 0.005
0.325158 0.75 0.005
0.325019 0.791667 0.005
0.32488 0.833333 0.005
0.324741 0.875 0.005
0.324602 0.916667 0.005
0.324463 0.958333 0.005
0.324324 1.0 0.005
0.368617 0.0 0.005
0.368461 0.0416667 0.005
0.368305 0.0833333 0.005
0.368148 0.125 0.005
0.367992 0.166667 0.005
0.367835 0.208333 0.005
0.367679 0.25 0.005
0.367523 0.291667 0.005
0.367366 0.333333 0.005
0.36721 0.375 0.005
0.367054 0.416667 0.005
0.366897 0.458333 0.005
0.366741 0.5 0.005
0.366585 0.541667 0.005
0.366428 0.583333 0.005
0.366272 0.625 0.005
0.366116 0.666667 0.005
0.365959 0.708333 0.005
0.365803 0.75 0.005
0.365647 0.791667 0.005
0.36549 0.833333 0.005
0.365334 0.875 0.005
0.365178 0.916667 0.005
0.365021 0.958333 0.005
0.364865 1.0 0.005
0.409575 0.0 0.005
0.409401 0.0416667 0.005
0.409227 0.0833333 0.005
0.409054 0.125 0.005
0.40888 0.166667 0.005
0.408706 0.208333 0.005
0.408532 0.25 0.005
0.408359 0.291667 0.005
0.408185 0.333333 0.005
0.408011 0.375 0.005
0.407838 0.416667 0.005
0.407664 0.458333 0.005
0.40749 0.5 0.005
0.407316 0.541667 0.005
0.407143 0.583333 0.005
0.406969 0.625 0.005
0.406795 0.666667 0.005
0.406621 0.708333 0.005
0.406448 0.75 0.005
0.406274 0.791667 0.005
0.4061 0.833333 0.005
0.405927 0.875 0.005
0.405753 0.916667 0.005
0.405579 0.958333 0.005
0.405405 1.0 0.005
0.450532 0.0 0.005
0.450341 0.0416667 0.005
0.45015 0.0833333 0.005
0.449959 0.125 0.005
0.449768 0.166667 0.005
0.449577 0.208333 0.005
0.449386 0.25 0.005
0.449195 0.291667 0.005
0.449003 0.333333 0.005
0.448812 0.375 0.005
0.448621 0.416667 0.005
0.44843 0.458333 0.005
0.448239 0.5 0.005
0.448048 0.541667 0.005
0.447857 0.583333 0.005
0.447666 0.625 0.005
0.447475 0.666667 0.005
0.447284 0.708333 0.005
0.447093 0.75 0.005
0.446901 0.791667 0.005
0.44671 0.833333 0.005
0.446519 0.875 0.005
0.446328 0.916667 0.005
0.446137 0.958333 0.005
0.445946 1.0 0.005
0.49149 0.0 0.005
0.491281 0.0416667 0.005
0.491073 0.0833333 0.005
0.490864 0.125 0.005
0.490656 0.166667 0.005
0.490447 0.208333 0.005
0.490239 0.25 0.005
0.49003 0.291667 0.005
0.489822 0.333333 0.005
0.489613 0.375 0.005
0.489405 0.416667 0.005
0.489197 0.458333 0.005
0.488988 0.5 0.005
0.48878 0.541667 0.005
0.488571 0.583333 0.005
0.488363 0.625 0.005
0.488154 0.666667 0.005
0.487946 0.708333 0.005
0.487737 0.75 0.005
0.487529 0.791667 0.005
0.48732 0.833333 0.005
0.487112 0.875 0.005
0.486903 0.916667 0.005
0.486695 0.958333 0.005
0.486486 1.0 0.005
0.531954 0.00563435 0.005
0.531749 0.0470663 0.005
0.531544 0.0884982 0.005
0.531338 0.12993 0.005
0.531133 0.171362 0.005
0.530928 0.212794 0.005
0.530722 0.254226 0.005
0.530517 0.295658 0.005
0.530312 0.33709 0.005
0.530107 0.378521 0.005
0.529901 0.419953 0.005
0.529696 0.461385 0.005
0.529491 0.502817 0.005
0.529285 0.544249 0.005
0.52908 0.585681 0.005
0.528875 0.627113 0.005
0.528669 0.668545 0.005
0.528464 0.709977 0.005
0.528259 0.751409 0.005
0.528054 0.79284 0.005
0.527848 0.834272 0.005
0.527643 0.875704 0.005
0.527438 0.917136 0.005
0.527232 0.958568 0.005
0.527027 1.0 0.005
0.572289 0.0127465 0.005
0.572093 0.0538821 0.005
0.571896 0.0950177 0.005
0.571699 0.136153 0.005
0.571502 0.177289 0.005
0.571306 0.218424 0.005
0.571109 0.25956 0.005
0.570912 0.300695 0.005
0.570715 0.341831 0.005
0.570519 0.382967 0.005
0.570322 0.424102 0.005
0.570125 0.465238 0.005
0.569928 0.506373 0.005
0.569732 0.547509 0.005
0.569535 0.588644 0.005
0.569338 0.62978 0.005
0.569142 0.670916 0.005
0.568945 0.712051 0.005
0.568748 0.753187 0.005
0.568551 0.794322 0.005
0.568355 0.835458 0.005
0.568158 0.876593 0.005
0.567961 0.917729 0.005
0.567764 0.958864 0.005
0.567568 1.0 0.005
0.612625 0.0198587 0.005
0.612436 0.0606979 0.005
0.612248 0.101537 0.005
0.61206 0.142376 0.005
0.611872 0.183216 0.005
0.611684 0.224055 0.005
0.611496 0.264894 0.005
0.611307 0.305733 0.005
0.611119 0.346572 0.005
0.610931 0.387412 0.005
0.610743 0.428251 0.005
0.610555 0.46909 0.005
0.610366 0.509929 0.005
0.610178 0.550769 0.005
0.60999 0.591608 0.005
0.609802 0.632447 0.005
0.609614 0.673286 0.005
0.609425 0.714125 0.005
0.609237 0.754965 0.005
0.609049 0.795804 0.005
0.608861 0.836643 0.005
0.608673 0.877482 0.005
0.608484 0.918322 0.005
0.608296 0.959161 0.005
0.608108 1.0 0.005
0.65296 0.0269708 0.005
0.65278 0.0675137 0.005
0.652601 0.108057 0.005
0.652421 0.148599 0.005
0.652241 0.189142 0.005
0.652062 0.229685 0.005
0.651882 0.270228 0.005
0.651702 0.310771 0.005
0.651523 0.351314 0.005
0.651343 0.391857 0.005
0.651164 0.4324 0.005
0.650984 0.472943 0.005
0.650804 0.513485 0.005
0.650625 0.554028 0.005
0.650445 0.594571 0.005
0.650265 0.635114 0.005
0.650086 0.675657 0.005
0.649906 0.7162 0.005
0.649726 0.756743 0.005
0.649547 0.797286 0.005
0.649367 0.837828 0.005
0.649188 0.878371 0.005
0.649008 0.918914 0.005
0.648828 0.959457 0.005
0.648649 1.0 0.005
0.693295 0.034083 0.005
0.693124 0.0743295 0.005
0.692953 0.114576 0.005
0.692782 0.154823 0.005
0.692611 0.195069 0.005
0.69244 0.235316 0.005
0.692269 0.275562 0.005
0.692098 0.315809 0.005
0.691926 0.356055 0.005
0.691755 0.396302 0.005
0.691584 0.436548 0.005
[...]
CELL_DATA 888
SCALARS P float 1
LOOKUP_TABLE default
100133.02426900665
100132.68510090595
100187.890094431
100130.35724101898
100187.76306130571
100268.42694991776
100126.36285911595
100184.52586468105
100268.68452797555
100386.92354582391
100121.00701131043
100178.75975560644
100263.97422293307
100387.8374416958
100561.80640845411
100114.59683180654
100170.98154256586
100255.31100032564
100380.67889055445
100563.81568179355
100821.05585055034
100107.43514640765
100161.68358547158
100243.59330304341
100367.22602881814
100552.47209893283
100824.81358264163
101208.03885526015
100099.80729705155
100151.33219032481
100229.65166448947
100349.07107541333
100530.97119680115
100806.04927499196
101214.23809055406
101792.30290729416
100091.96913583917
100140.35354242353
100214.24303958575
100327.65337824998
100502.19880699654
100770.73579817466
101181.64492709519
101800.46736329899
102692.11557206693
100084.13933694758
100129.1205774405
100198.03282301099
100304.2350953449
100468.69386179802
100724.23960489829
101121.9966271039
101740.41725350163
102694.9989580072
104128.89283891738
100076.4963406688
100117.9453298472
100181.58133322782
100279.8762487801
100432.58231525509
100671.08453848588
101045.50625369385
101636.54259983184
102576.19333603686
104088.70019510649
106581.86391784476
100069.17903377472
100107.077415202
100165.34065651633
100255.42947267352
100395.55932389102
100614.84628994284
100960.24169841732
101508.57353662395
102389.13832130402
103833.73953544495
106326.93667086135
111305.13469109223
100062.29015536158
100096.70740133042
100149.65930852348
100231.54857625514
100358.91031479664
100558.1962668525
100872.11708295507
101370.67701272524
102171.73410511488
103484.97141890356
105733.06910320332
110044.72736401406
122377.03538066446
100055.90113105135
100086.97323726484
100134.7930387767
100208.71262194005
100323.56555976454
100503.0258998655
100785.20124259607
101232.22771270861
101947.64439432406
103111.19295089012
105062.95845660804
108575.04586090689
116131.88649652948
132627.8003333453
100050.05757409075
100077.96829732698
100120.91866657196
100187.25286048731
100290.15906297586
100450.59882433816
100702.13118321527
101099.02922750448
101730.48206950289
102747.19035041385
104417.90718602481
107275.85490655922
112579.50640168074
122928.84416347642
140642.19820030878
100044.78487346937
100069.74977311294
100108.1485452415
100167.38110362321
100259.09287850118
100401.70007687995
100624.49236806846
100974.40391362757
101527.46264225194
102408.97559172477
103831.92254040793
106179.01760569029
110192.92989453471
117337.8308747639
129419.75363251938
147123.43478616173
100040.09339550154
100062.34704679566
100096.54453404543
100149.21682393222
100230.59305534765
100356.76016359024
100553.12655378267
100860.02809428236
101341.92330174865
102102.80281253268
103312.95736732929
105257.85532758494
108427.42144161068
113725.00385109425
122371.5871141801
135316.6787365034
152446.89938480398
100035.98322765432
100055.76905694297
100086.13085428746
100132.80984315289
100204.75475904653
100315.95917999234
100488.37247810441
100756.52666613676
101174.93177000996
101829.96781842428
102859.11654967768
104482.0930829072
107048.10158322987
111165.3847078832
117666.03834294177
127354.70301742676
140570.26347395193
156841.88448038837
100032.44847652451
100050.01103239293
100076.9050975009
100118.16108055915
100181.58269913965
100279.30452908466
100430.2337816655
100663.86633591285
101026.26113274916
101589.31375799242
102465.00799592928
103826.48779381464
105936.07889934027
109232.89219426797
114310.72310402044
121797.25712412549
132111.5273362512
145203.46025875566
160466.63304989488
100029.48106348705
100045.0604545298
100068.84763578748
100105.23822223865
100161.01987326669
100246.69152331035
100378.50701288061
100581.63101318205
100894.9806462937
101378.55392296887
102124.25249695804
103270.92356080894
105022.72837815603
107712.86447420465
111786.52153883304
117735.18103817018
125952.01535694256
136551.59158790743
149259.0074108374
163440.38116033035
100027.07448093826
100040.90239772377
100061.93023743524
100093.99003149469
100142.97325849533
100217.9472731648
100332.86757408935
100509.19181657462
100779.82096402925
101194.958842898
101830.49902312335
102799.2466996256
104263.93066075083
106486.13173696196
109813.11706446034
114639.52339738209
121315.49692419646
130013.2363932705
140633.04340526037
152784.2309003541
165857.87017924094
100025.22801272385
100037.52489659475
100056.12327049603
100084.35684010659
100127.33030187766
100192.86409834292
100292.9303801712
100445.82138992872
100679.3811343186
101035.72176763955
101577.8545885141
102398.32698098388
103629.03670952655
105479.93547643755
108229.67137927856
112202.92221570233
117710.18281400963
124946.33205254903
133902.1123890313
144341.00280724574
155825.92200593778
167797.7071554968
100023.95234481442
100034.92538863461
100051.40343792495
100076.28164042822
100113.97610783446
100171.22411112873
100258.2909272369
100390.7722570878
100592.25526686801
100898.15360973477
101361.01900854276
102057.35394166032
103095.34492537781
104646.03043557382
106937.24456349545
110240.6230463901
114832.55254410412
120916.99909681402
128543.36473147359
137568.00598859432
147676.26302101318
158429.00724645844
169327.17367092014
100023.27900407244
100033.11993465188
100047.7633987051
100069.72019071101
100102.80560857871
100152.81832123583
100228.55561441468
100343.31813430475
100517.10996791515
100779.77886526322
101175.32050706197
101767.35651618609
102645.4015157044
103950.25952374098
105870.37678042342
108635.47146725388
112491.69143695623
117644.30652097506
124185.15800457571
132041.63113899386
140979.94229628038
150649.6989886702
160636.333719379
170505.13085547247
100032.15921272805
100045.22588715337
100064.65507355276
100093.73886000717
100137.46323960247
100203.36456881481
100302.7896950031
100452.72213577047
100678.36972948516
101016.68782194244
101520.85349329287
102265.428108856
103367.13793296929
104983.12010679462
107308.70057340061
110562.48160891527
114945.20121864304
120578.73365001286
127449.98121241397
135392.86285710274
144120.64486677907
153277.35752445567
162488.19250168503
171380.74675778777
100043.86837442816
100061.11614703294
100086.73913252441
100125.01988006558
100182.41153098125
100268.59524047002
100398.00396466556
100591.96781207465
100881.61881903379
101311.58186759644
101944.30184413117
102877.05616787971
104241.56475403094
106204.35400253157
108958.7127477832
112696.05420236046
117557.42639006875
123578.72899959095
130657.28903253912
138562.2742369885
146983.22616282417
155579.2723425836
164021.8938662067
171999.8768176185
100059.21645765728
100081.84268233593
100115.41854643243
100165.46444179321
100240.24031406548
100352.02107373954
100518.88398119975
100767.12150595867
101134.31307085657
101672.9780496014
102464.5263661656
103619.76064439387
105280.84742445407
107617.84028042553
110809.50378279752
115006.43721163813
120282.24255419362
126592.26523671328
133763.55145579568
141526.33656859075
149568.26504474343
157577.13740092542
165273.37994361724
172398.1235188987
100079.20854168008
100108.69883414064
100152.39994776082
100217.35468093737
100314.0065543729
100457.69553165758
100670.6742043245
100984.6806583151
101444.04816355777
102117.12778337256
103097.37815047892
104506.24997057139
106492.61665772935
109220.58546438497
112842.64039963273
117458.76685075296
123073.86105576513
129573.38076501928
136734.55117436638
144270.49072732424
151882.0206433508
159294.27071008383
166272.75223769873
172611.36015499337
100105.07865908886
100143.25547743596
100199.73130643422
100283.38797595515
100407.25253030597
100590.18981267828
100859.0709658365
101251.43253955436
101824.8062470622
102658.20583977085
103855.40984361178
105546.1721032129
107879.17279137702
111002.95787159173
115033.71682809285
120015.64462457458
125888.85394960924
132483.05965096215
139544.747339584
146787.3456515455
153934.84529764485
160753.3420328372
167051.96369070583
172667.27659668683
100138.32418190656
100187.39755160316
100259.83670213763
100366.70252810992
100524.00416752437
100754.5341655028
101090.15211623572
101579.40368445504
102289.18922511964
103308.19333260809
104749.15478989844
106745.26768397375
109437.32763943356
112949.30449559892
117354.02440808008
122638.97280424487
128687.60609115641
135288.9956071911
142175.93949601342
149074.37521782203
155739.49649103344
161976.87527556065
167636.50013318463
172596.08243542074
100180.74123550537
100243.3575167741
100335.54470487338
100470.88758336242
100668.74270622485
100956.19610766524
101374.28968938369
101979.74853923426
102848.36034426725
104077.81771027732
105786.43004576734
108104.92337638683
111158.53976923082
115039.06675879273
119772.16850536401
125291.70924564247
131434.94911957512
137965.3801820078
144616.2357139861
151134.700060643
157310.65178206572
162987.74517963745
168053.57216569752
172417.2930521692
100234.45773282577
100313.74631258212
100430.10826372638
100599.97912734246
100846.41369623692
101204.14469258604
101721.32662512077
102462.73280911107
103512.8323245412
104975.99912875654
106971.71291515652
109621.96048127356
113029.25874059896
117247.8539640031
122255.57877073277
127938.8739756177
134100.64755439208
140492.80941042444
146859.12894566986
152974.0363611936
158663.91582126185
163808.2090382612
168326.31585570052
172159.868138154
100301.96594242577
100401.58032195634
100547.2192452153
100758.49296720333
101064.81670076988
101507.08290150155
102140.63947195554
103038.38426623796
104291.93079367118
106009.16835218621
108305.76641066937
111288.64375761981
115031.71308062147
119548.6463025762
124771.8543391584
130548.71135393856
136659.6074732771
142856.11169726215
148901.94311168735
154601.81956550688
159816.68110078582
164459.6940187918
168478.89700559518
171842.23739723966
100386.151935602
100510.30648164349
100691.0531105868
100953.28109020507
101331.6841751276
101873.53234730633
102641.62636275873
103716.03962803028
105193.27111193552
107180.8798810139
109785.44963745547
113093.04785695476
117144.66987852397
121912.97806138203
127289.82444625437
133092.51188625104
139091.54966727475
145046.78216994824
150746.52946347563
156028.29570443055
160786.03685446494
164962.83557506703
168533.93588638143
171492.18930490233
100490.32855759928
100643.85902791303
100867.72103714515
101191.25480101694
101654.74995752532
102312.20916695897
103233.34164739901
104503.84023490346
106222.24398248507
108491.45780779421
111403.69286364818
115019.41563293868
119344.37115566061
124311.97149674082
129780.33513429652
135546.61369955388
141380.064935383
147058.1573596219
152396.63687339568
157265.12186371334
161589.61774230158
165339.76927227186
168516.35430732497
171139.47843363485
100618.29673176877
100807.81172209317
101083.47399976621
101479.45960399124
102042.06080719375
102831.74453249098
103924.11554798139
105408.36620319464
107381.65500214853
109937.71914605134
113149.6968507355
117048.89525678074
121605.32255298148
126717.28374429612
132216.2228672325
137889.8463936331
143514.10169888102
148888.30858361904
153858.55440341227
158325.77846643064
162244.91202721823
165611.9079961876
168452.7015692654
170831.5390847716
100775.33460993748
101007.94036285074
101344.7884257985
101825.321345789
102501.73873796061
103440.3494097853
104721.12297376916
106434.14361036006
108671.39072202337
111513.08322521595
115009.17507057832
119160.06958376794
123901.40134138582
129101.42120585828
134573.9770730516
140104.6977410416
145484.16714525613
150537.41408031614
155139.93985524197
159223.504907645
162770.2181574595
165801.55537528734
168376.40444800453
170624.7244007971
100966.94060487495
101250.29344944871
101658.55916168109
102236.45898886524
103041.74123838222
104145.468645384
105630.00568282799
107583.28670614945
110088.2268809403
113207.44308490388
116964.91101483845
121329.35007411634
126205.8298221541
131438.86281486013
136832.2228343395
142177.59448352057
147285.11220269045
152007.18935450746
156248.97465644407
159971.2645276239
163181.9666552843
165929.5060032557
168320.40350951286
101198.92333269754
101541.34703681593
102031.93570248465
102720.4668475198
103669.50925422562
104953.41077677294
106654.51512614392
108855.23612954265
111625.70725078002
115007.54049435873
118997.07695938587
123532.85695117684
128492.89616504221
133705.65845782863
138972.4331429229
144097.00739723412
148912.55291536608
153299.45741194225
157192.757170793
160579.34197155468
163490.5450701571
166006.62307494582
101477.51480756178
101887.88423862206
102472.14815801075
103284.65281938753
104391.65830505609
105868.95216978693
107796.05970805338
110246.5392608699
113274.22136956155
116897.23973557496
121083.89912762077
125744.97048068696
130737.14024943009
135879.80367808088
140977.95813215402
145852.8991242073
150362.76263081684
154416.42425325562
157974.78464442314
161047.8031625101
163685.09560855455
101809.26625580814
102296.816206728
102986.27686359071
103935.71567850934
105213.64356194042
106894.9842220089
109053.53032277599
111750.62466147136
115020.74373910489
118857.35590008154
123201.45186781339
127939.80694249492
132914.01260462037
137940.06715473754
142833.24616156763
147435.5705602876
151630.5061905209
155353.2193932249
158585.79214977167
161346.0592716019
102200.90208008903
102774.9922767852
103580.97415223018
104679.44398825786
106139.35486753756
108032.21293411289
110423.01585983884
113357.91068638358
116849.8278653694
120866.79924534787
125325.16557308723
130091.90818980179
134999.35306538595
139866.06653423124
144522.77889166816
148832.5203611394
152704.1508915659
156090.49084474455
158975.80367544058
102659.10799372879
103328.95953752256
104262.16925626708
105520.38897485952
107170.77828149943
109278.77522339286
111897.5848960524
115055.32715190065
118742.59647279805
122902.3876224049
127428.74594409161
132174.80868213912
136968.64880191142
141636.99514441856
146027.6876113975
150024.7412821111
153553.3121699217
156561.84379704733
103190.33069601112
103964.66910760019
105034.77111192876
106461.4371914053
108307.69338000579
110630.03767209881
113467.01922287278
116827.04995296527
120677.29053272029
124937.70920579927
129484.6359261002
134160.7354701973
138795.71734696007
143227.6492049798
147320.8800478526
150972.30185592527
154096.34783443686
103800.50591419914
104687.17714771052
105902.24619498965
107503.48533754991
109547.10667825204
112078.05211869483
115117.86525067355
118653.62719858464
122629.5846602957
126945.57046623869
131462.677575575
136019.23467187365
140449.61019611827
144602.98484073768
148351.90572455453
151577.1998139712
104494.73599474503
105500.31476389388
106866.31587263358
108645.10913000607
110883.45469126172
113611.81768385289
116833.0054546742
120512.12095280357
124571.74874705968
128893.68799527132
133328.7240549104
137713.90110069385
141888.27935067718
145703.40839139503
149009.85815535142
105276.98217472037
106406.27833771904
107926.56821210052
109882.07080730457
112307.42101130313
115216.31761969897
118591.45350344284
122375.62732392672
126471.68765985474
130746.35060486528
135043.07123091855
139196.45555144464
143043.08714339684
146405.220618078
106149.70010858527
107405.27205735414
109079.78521313869
111206.73495706619
113805.96020472054
116872.43635100138
120367.35732091636
124212.34274625662
128291.9442639238
132459.51849754422
136550.89410566192
140391.00874493018
143779.37424145668
107113.37102676768
108494.99229964607
110319.98383126517
112608.1813858075
115361.94846386721
118556.10414201561
122129.71279903999
125984.03606270604
129985.60466230365
133974.69026349377
137769.53326570496
141152.32650678704
108166.17588377376
109670.17501789279
111637.19295167482
114070.47810568548
116952.94893315287
120237.38617526817
123840.46915460621
127642.6062683507
131491.08961600802
135203.00026143462
138546.73434653314
109303.32255938902
110922.04787369195
113017.29669096938
115573.0574487539
118550.40652536626
121878.62131679471
125450.81276395245
129123.93593498784
132716.01145223546
135987.01573105034
110516.59709587818
112237.49695209492
114440.9181988752
117088.67387707355
120117.615996021
123431.09855744347
126895.26838895175
130332.3841661626
133497.67229123344
111793.47488973923
113598.20667049305
115882.20412767434
118581.73662553125
121606.25008615077
124829.08782375506
128076.97979364499
131104.20181649816
113116.22317854642
114979.3684045345
117306.63842171543
120005.29159340449
122951.2041571244
125975.48957337404
128832.14459433008
114460.75430602803
116347.75930253294
118668.79986379822
121295.00342677331
124056.74386547183
126708.44643096808
115794.56244457739
117658.6908441003
119905.35707536139
122356.45411398343
124763.58052363654
117073.71329457928
118850.59149301298
120924.40994015186
123035.47107076034
118237.57908102623
119833.59494170989
121575.87674447414
119197.59159548068
120461.6184129914
119810.80471352203
SCALARS T float 1
LOOKUP_TABLE default
300.1148166748239
300.11450560095165
300.16261652889017
300.112472611959
300.16246520388796
300.2331775135983
300.10899658919044
300.15961272546116
300.23330750503953
300.33775732692607
300.1043429562724
300.1545633056466
300.22910537881626
300.3383434984975
300.49354994298307
300.09877936864103
300.1477684357985
300.2214551402797
300.3318538681091
300.49483896694755
300.7272166676706
300.09256958693123
300.139659426802
300.2111462270669
300.31984652473255
300.48434988524747
300.72947459836206
301.0809820437313
300.08596173690546
300.1306446066215
300.1989109152567
300.3037311522352
300.4649059426631
300.711721176719
301.0841257422415
301.6237758051839
300.0791777952934
300.12109635896246
300.1854162330358
300.2847866922236
300.4390859129218
300.67928863812784
301.0525288686966
301.62580916125887
302.47344751253985
300.0724069654897
300.11133949070194
300.1712467578018
300.26413332424426
300.40916587119034
300.6370233453962
300.99679651057465
301.566291908946
302.4643886282726
303.8462523939347
300.0658031495032
300.1016446931737
300.156892502471
300.24270779313673
300.3770472439944
300.58901956233956
300.926253580694
301.46752847094547
302.344947351682
303.78490445378475
306.183383795934
300.0594856885885
300.09222750355787
300.14274656104277
300.22125869905614
300.3442368112284
300.5385002105363
300.8482699465761
301.3477108427374
302.16442907694216
303.5287570241676
305.90507084336394
310.5227364476392
300.0535424600877
300.08325156642536
300.12910987548526
300.2003552731295
300.3118665870916
300.48785175703074
300.7682127167331
301.21988029715095
301.9580039447513
303.18949742785315
305.3216983916975
309.35004039213874
319.70218480458624
300.04803418539575
300.0748345272384
300.11620140603515
300.1804102188297
300.28074567801565
300.4387411158951
300.6897264939962
301.0925808815178
301.747551827089
302.83102217254856
304.672868617935
307.97511934886035
314.702215301436
327.68198884322544
300.042999282787
300.06705526450486
300.10417084327605
300.16170495962143
300.2514162500874
300.39226047720143
300.6151247650053
300.9709983281388
301.5454731445239
302.4855234049493
304.0527860244153
306.7445434281812
311.61122370659706
320.41871447715863
333.6735865972201
300.038458762765
300.0599613517155
300.0931117010677
300.14441579857873
300.22421365952954
300.3490686493812
300.5457529249515
300.8579983184513
301.35812413376095
302.16746887768255
303.49339821859456
305.6992961180163
309.4346870453486
315.8027767358249
325.6604382772832
338.3885978945401
300.03442076044183
300.0535764339493
300.0830738144496
300.12863855599335
300.19931822599506
300.3095078572404
300.4822813928543
300.7549267538959
301.188222627955
301.8820687036654
303.0017768498879
304.82127809344405
307.7848962655167
312.62903027907157
320.09487815256807
330.2591495006947
342.18198616274947
300.0308846500422
300.0479066739847
300.0740747224001
300.114408978396
300.17679653512164
300.27370043853955
300.4249327220196
300.6621777213156
301.0363943843061
301.6298655845082
302.5753517975437
304.08462164268974
306.4824464270095
310.29501408079165
316.1090858437339
324.2078405316342
334.23553768430895
345.2619898500974
300.027844757427
300.04294660767994
300.0661093295014
300.10172116041434