# vtk DataFile Version 2.0
JuliaCFD
ASCII
DATASET UNSTRUCTURED_GRID

POINTS 1900 float
0.0 0.0 0.005
0.0 0.0416667 0.005
0.0 0.0833333 0.005
0.0 0.125 0.005
0.0 0.166667 0.005
0.0 0.208333 0.005
0.0 0.25 0.005
0.0 0.291667 0.005
0.0 0.333333 0.005
0.0 0.375 0.005
0.0 0.416667 0.005
0.0 0.458333 0.005
0.0 0.5 0.005
0.0 0.541667 0.005
0.0 0.583333 0.005
0.0 0.625 0.005
0.0 0.666667 0.005
0.0 0.708333 0.005
0.0 0.75 0.005
0.0 0.791667 0.005
0.0 0.833333 0.005
0.0 0.875 0.005
0.0 0.916667 0.005
0.0 0.958333 0.005
0.0 1.0 0.005
0.0409575 0.0 0.005
0.0409401 0.0416667 0.005
0.0409227 0.0833333 0.005
0.0409054 0.125 0.005
0.040888 0.166667 0.005
0.0408706 0.208333 0.005
0.0408532 0.25 0.005
0.0408359 0.291667 0.005
0.0408185 0.333333 0.005
0.0408011 0.375 0.005
0.0407838 0.416667 0.005
0.0407664 0.458333 0.005
0.040749 0.5 0.005
0.0407316 0.541667 0.005
0.0407143 0.583333 0.005
0.0406969 0.625 0.005
0.0406795 0.666667 0.005
0.0406621 0.708333 0.005
0.0406448 0.75 0.005
0.0406274 0.791667 0.005
0.04061 0.833333 0.005
0.0405927 0.875 0.005
0.0405753 0.916667 0.005
0.0405579 0.958333 0.005
0.0405405 1.0 0.005
0.0819149 0.0 0.005
0.0818802 0.0416667 0.005
0.0818455 0.0833333 0.005
0.0818107 0.125 0.005
0.081776 0.166667 0.005
0.0817412 0.208333 0.005
0.0817065 0.25 0.005
0.0816717 0.291667 0.005
0.081637 0.333333 0.005
0.0816022 0.375 0.005
0.0815675 0.416667 0.005
0.0815328 0.458333 0.005
0.081498 0.5 0.005
0.0814633 0.541667 0.005
0.0814285 0.583333 0.005
0.0813938 0.625 0.005
0.081359 0.666667 0.005
0.0813243 0.708333 0.005
0.0812895 0.75 0.005
0.0812548 0.791667 0.005
0.0812201 0.833333 0.005
0.0811853 0.875 0.005
0.0811506 0.916667 0.005
0.0811158 0.958333 0.005
0.0810811 1.0 0.005
0.122872 0.0 0.005
0.12282 0.0416667 0.005
0.122768 0.0833333 0.005
0.122716 0.125 0.005
0.122664 0.166667 0.005
0.122612 0.208333 0.005
0.12256 0.25 0.005
0.122508 0.291667 0.005
0.122455 0.333333 0.005
0.122403 0.375 0.005
0.122351 0.416667 0.005
0.122299 0.458333 0.005
0.122247 0.5 0.005
0.122195 0.541667 0.005
0.122143 0.583333 0.005
0.122091 0.625 0.005
0.122039 0.666667 0.005
0.121986 0.708333 0.005
0.121934 0.75 0.005
0.121882 0.791667 0.005
0.12183 0.833333 0.005
0.121778 0.875 0.005
0.121726 0.916667 0.005
0.121674 0.958333 0.005
0.121622 1.0 0.005
0.16383 0.0 0.005
0.16376 0.0416667 0.005
0.163691 0.0833333 0.005
0.163621 0.125 0.005
0.163552 0.166667 0.005
0.163482 0.208333 0.005
0.163413 0.25 0.005
0.163343 0.291667 0.005
0.163274 0.333333 0.005
0.163204 0.375 0.005
0.163135 0.416667 0.005
0.163066 0.458333 0.005
0.162996 0.5 0.005
0.162927 0.541667 0.005
0.162857 0.583333 0.005
0.162788 0.625 0.005
0.162718 0.666667 0.005
0.162649 0.708333 0.005
0.162579 0.75 0.005
0.16251 0.791667 0.005
0.16244 0.833333 0.005
0.162371 0.875 0.005
0.162301 0.916667 0.005
0.162232 0.958333 0.005
0.162162 1.0 0.005
0.204787 0.0 0.005
0.2047 0.0416667 0.005
0.204614 0.0833333 0.005
0.204527 0.125 0.005
0.20444 0.166667 0.005
0.204353 0.208333 0.005
0.204266 0.25 0.005
0.204179 0.291667 0.005
0.204092 0.333333 0.005
0.204006 0.375 0.005
0.203919 0.416667 0.005
0.203832 0.458333 0.005
0.203745 0.5 0.005
0.203658 0.541667 0.005
0.203571 0.583333 0.005
0.203484 0.625 0.005
0.203398 0.666667 0.005
0.203311 0.708333 0.005
0.203224 0.75 0.005
0.203137 0.791667 0.005
0.20305 0.833333 0.005
0.202963 0.875 0.005
0.202876 0.916667 0.005
0.20279 0.958333 0.005
0.202703 1.0 0.005
0.245745 0.0 0.005
0.245641 0.0416667 0.005
0.245536 0.0833333 0.005
0.245432 0.125 0.005
0.245328 0.166667 0.005
0.245224 0.208333 0.005
0.245119 0.25 0.005
0.245015 0.291667 0.005
0.244911 0.333333 0.005
0.244807 0.375 0.005
0.244703 0.416667 0.005
0.244598 0.458333 0.005
0.244494 0.5 0.005
0.24439 0.541667 0.005
0.244286 0.583333 0.005
0.244181 0.625 0.005
0.244077 0.666667 0.005
0.243973 0.708333 0.005
0.243869 0.75 0.005
0.243764 0.791667 0.005
0.24366 0.833333 0.005
0.243556 0.875 0.005
0.243452 0.916667 0.005
0.243347 0.958333 0.005
0.243243 1.0 0.005
0.286702 0.0 0.005
0.286581 0.0416667 0.005
0.286459 0.0833333 0.005
0.286337 0.125 0.005
0.286216 0.166667 0.005
0.286094 0.208333 0.005
0.285973 0.25 0.005
0.285851 0.291667 0.005
0.285729 0.333333 0.005
0.285608 0.375 0.005
0.285486 0.416667 0.005
0.285365 0.458333 0.005
0.285243 0.5 0.005
0.285121 0.541667 0.005
0.285 0.583333 0.005
0.284878 0.625 0.005
0.284757 0.666667 0.005
0.284635 0.708333 0.005
0.284513 0.75 0.005
0.284392 0.791667 0.005
0.28427 0.833333 0.005
0.284149 0.875 0.005
0.284027 0.916667 0.005
0.283905 0.958333 0.005
0.283784 1.0 0.005
0.32766 0.0 0.005
0.327521 0.0416667 0.005
0.327382 0.0833333 0.005
0.327243 0.125 0.005
0.327104 0.166667 0.005
0.326965 0.208333 0.005
0.326826 0.25 0.005
0.326687 0.291667 0.005
0.326548 0.333333 0.005
0.326409 0.375 0.005
0.32627 0.416667 0.005
0.326131 0.458333 0.005
0.325992 0.5 0.005
0.325853 0.541667 0.005
0.325714 0.583333 0.005
0.325575 0.625 0.005
0.325436 0.666667 0.005
0.325297 0.708333 0.005
0.325158 0.75 0.005
0.325019 0.791667 0.005
0.32488 0.833333 0.005
0.324741 0.875 0.005
0.324602 0.916667 0.005
0.324463 0.958333 0.005
0.324324 1.0 0.005
0.368617 0.0 0.005
0.368461 0.0416667 0.005
0.368305 0.0833333 0.005
0.368148 0.125 0.005
0.367992 0.166667 0.005
0.367835 0.208333 0.005
0.367679 0.25 0.005
0.367523 0.291667 0.005
0.367366 0.333333 0.005
0.36721 0.375 0.005
0.367054 0.416667 0.005
0.366897 0.458333 0.005
0.366741 0.5 0.005
0.366585 0.541667 0.005
0.366428 0.583333 0.005
0.366272 0.625 0.005
0.366116 0.666667 0.005
0.365959 0.708333 0.005
0.365803 0.75 0.005
0.365647 0.791667 0.005
0.36549 0.833333 0.005
0.365334 0.875 0.005
0.365178 0.916667 0.005
0.365021 0.958333 0.005
0.364865 1.0 0.005
0.409575 0.0 0.005
0.409401 0.0416667 0.005
0.409227 0.0833333 0.005
0.409054 0.125 0.005
0.40888 0.166667 0.005
0.408706 0.208333 0.005
0.408532 0.25 0.005
0.408359 0.291667 0.005
0.408185 0.333333 0.005
0.408011 0.375 0.005
0.407838 0.416667 0.005
0.407664 0.458333 0.005
0.40749 0.5 0.005
0.407316 0.541667 0.005
0.407143 0.583333 0.005
0.406969 0.625 0.005
0.406795 0.666667 0.005
0.406621 0.708333 0.005
0.406448 0.75 0.005
0.406274 0.791667 0.005
0.4061 0.833333 0.005
0.405927 0.875 0.005
0.405753 0.916667 0.005
0.405579 0.958333 0.005
0.405405 1.0 0.005
0.450532 0.0 0.005
0.450341 0.0416667 0.005
0.45015 0.0833333 0.005
0.449959 0.125 0.005
0.449768 0.166667 0.005
0.449577 0.208333 0.005
0.449386 0.25 0.005
0.449195 0.291667 0.005
0.449003 0.333333 0.005
0.448812 0.375 0.005
0.448621 0.416667 0.005
0.44843 0.458333 0.005
0.448239 0.5 0.005
0.448048 0.541667 0.005
0.447857 0.583333 0.005
0.447666 0.625 0.005
0.447475 0.666667 0.005
0.447284 0.708333 0.005
0.447093 0.75 0.005
0.446901 0.791667 0.005
0.44671 0.833333 0.005
0.446519 0.875 0.005
0.446328 0.916667 0.005
0.446137 0.958333 0.005
0.445946 1.0 0.005
0.49149 0.0 0.005
0.491281 0.0416667 0.005
0.491073 0.0833333 0.005
0.490864 0.125 0.005
0.490656 0.166667 0.005
0.490447 0.208333 0.005
0.490239 0.25 0.005
0.49003 0.291667 0.005
0.489822 0.333333 0.005
0.489613 0.375 0.005
0.489405 0.416667 0.005
0.489197 0.458333 0.005
0.488988 0.5 0.005
0.48878 0.541667 0.005
0.488571 0.583333 0.005
0.488363 0.625 0.005
0.488154 0.666667 0.005
0.487946 0.708333 0.005
0.487737 0.75 0.005
0.487529 0.791667 0.005
0.48732 0.833333 0.005
0.487112 0.875 0.005
0.486903 0.916667 0.005
0.486695 0.958333 0.005
0.486486 1.0 0.005
0.531954 0.00563435 0.005
0.531749 0.0470663 0.005
0.531544 0.0884982 0.005
0.531338 0.12993 0.005
0.531133 0.171362 0.005
0.530928 0.212794 0.005
0.530722 0.254226 0.005
0.530517 0.295658 0.005
0.530312 0.33709 0.005
0.530107 0.378521 0.005
0.529901 0.419953 0.005
0.529696 0.461385 0.005
0.529491 0.502817 0.005
0.529285 0.544249 0.005
0.52908 0.585681 0.005
0.528875 0.627113 0.005
0.528669 0.668545 0.005
0.528464 0.709977 0.005
0.528259 0.751409 0.005
0.528054 0.79284 0.005
0.527848 0.834272 0.005
0.527643 0.875704 0.005
0.527438 0.917136 0.005
0.527232 0.958568 0.005
0.527027 1.0 0.005
0.572289 0.0127465 0.005
0.572093 0.0538821 0.005
0.571896 0.0950177 0.005
0.571699 0.136153 0.005
0.571502 0.177289 0.005
0.571306 0.218424 0.005
0.571109 0.25956 0.005
0.570912 0.300695 0.005
0.570715 0.341831 0.005
0.570519 0.382967 0.005
0.570322 0.424102 0.005
0.570125 0.465238 0.005
0.569928 0.506373 0.005
0.569732 0.547509 0.005
0.569535 0.588644 0.005
0.569338 0.62978 0.005
0.569142 0.670916 0.005
0.568945 0.712051 0.005
0.568748 0.753187 0.005
0.568551 0.794322 0.005
0.568355 0.835458 0.005
0.568158 0.876593 0.005
0.567961 0.917729 0.005
0.567764 0.958864 0.005
0.567568 1.0 0.005
0.612625 0.0198587 0.005
0.612436 0.0606979 0.005
0.612248 0.101537 0.005
0.61206 0.142376 0.005
0.611872 0.183216 0.005
0.611684 0.224055 0.005
0.611496 0.264894 0.005
0.611307 0.305733 0.005
0.611119 0.346572 0.005
0.610931 0.387412 0.005
0.610743 0.428251 0.005
0.610555 0.46909 0.005
0.610366 0.509929 0.005
0.610178 0.550769 0.005
0.60999 0.591608 0.005
0.609802 0.632447 0.005
0.609614 0.673286 0.005
0.609425 0.714125 0.005
0.609237 0.754965 0.005
0.609049 0.795804 0.005
0.608861 0.836643 0.005
0.608673 0.877482 0.005
0.608484 0.918322 0.005
0.608296 0.959161 0.005
0.608108 1.0 0.005
0.65296 0.0269708 0.005
0.65278 0.0675137 0.005
0.652601 0.108057 0.005
0.652421 0.148599 0.005
0.652241 0.189142 0.005
0.652062 0.229685 0.005
0.651882 0.270228 0.005
0.651702 0.310771 0.005
0.651523 0.351314 0.005
0.651343 0.391857 0.005
0.651164 0.4324 0.005
0.650984 0.472943 0.005
0.650804 0.513485 0.005
0.650625 0.554028 0.005
0.650445 0.594571 0.005
0.650265 0.635114 0.005
0.650086 0.675657 0.005
0.649906 0.7162 0.005
0.649726 0.756743 0.005
0.649547 0.797286 0.005
0.649367 0.837828 0.005
0.649188 0.878371 0.005
0.649008 0.918914 0.005
0.648828 0.959457 0.005
0.648649 1.0 0.005
0.693295 0.034083 0.005
0.693124 0.0743295 0.005
0.692953 0.114576 0.005
0.692782 0.154823 0.005
0.692611 0.195069 0.005
0.69244 0.235316 0.005
0.692269 0.275562 0.005
0.692098 0.315809 0.005
0.691926 0.356055 0.005
0.691755 0.396302 0.005
0.691584 0.436548 0.005
[...]
CELL_DATA 888
SCALARS P float 1
LOOKUP_TABLE default
100008.03748376793
100007.89262136549
100013.62172040758
100007.41522553707
100013.4167682875
100025.29506698067
100006.69060600712
100012.60959015689
100024.96159328581
100048.11645502599
100005.81147153142
100011.36414240646
100023.43692375108
100047.54488277268
100091.22005765908
100004.86866527837
100009.85154148862
100021.06169106344
100044.55490768515
100090.22188448053
100170.90076406537
100003.94055032314
100008.2343195992
100018.18553280253
100039.87737785235
100084.29742301042
100169.09280001666
100316.18284664825
100003.08584560477
100006.64908502232
100015.13114275072
100034.24977908141
100075.0420786453
100157.28204313092
100312.57128000521
100579.48323099989
100002.3412171112
100005.1956747238
100012.16091272347
100028.33045538956
100064.02336208156
100139.00527756911
100288.73874384192
100570.90973771398
101059.15935248944
100001.72296118287
100003.93462056012
100009.45955124882
100022.63382292459
100052.581799728
100117.59679116537
100252.68143765742
100521.68558516953
101034.30973629467
101953.89247140707
100001.23120522848
100002.89129046684
100007.13345035768
100017.5052431352
100041.71307698665
100095.74626004187
100211.46462513492
100450.32785373123
100928.77078656362
101869.43209533356
103715.85814653158
100000.85507350622
100002.06384276626
100005.22213917258
100013.13069583048
100032.04739747415
100075.32613502756
100170.35405726379
100371.64342124219
100786.42237861363
101631.23982877022
103395.10572106497
107557.89475090636
100000.5776215247
100001.43237375047
100003.71542595474
100009.56655669
100023.89318817548
100057.43130442615
100132.71462565725
100295.5307599797
100637.39285445336
101344.00589151897
102825.02531393134
106218.18765891381
117447.72303253594
100000.37980055729
100000.96732768146
100002.57149378175
100006.77772280088
100017.31396430908
100042.52785534722
100100.30683802003
100227.60117162876
100498.9167156779
101064.31466863662
102240.01593620935
104789.98203704588
111202.38683511595
126433.70919325002
100000.24322428141
100000.6360969259
100001.732677198
100004.67391284347
100012.20893749937
100030.63457768358
100073.71558392333
100170.32961557398
100379.15664318572
100817.52143123816
101723.035399032
103609.00702095001
107734.86411624
116751.84652978806
133193.055693962
100000.15178791607
100000.40752836903
100001.13733583002
100003.13960554337
100008.38526480536
100021.49195367923
100052.75759175073
100124.13473939903
100280.64200150558
100612.00596181999
101295.05080691214
102683.61265888705
105510.63465994269
111269.1495394974
121910.7515951343
138447.77315024644
100000.09235548615
100000.2545087845
100000.72767314356
100002.05559409803
100005.61343995515
100014.69739063123
100036.8111840791
100088.22641675154
100202.69675056534
100447.62964205076
100953.85439377968
101971.09219038635
103968.32927809119
107854.80031029892
114947.99356336078
126431.13627621127
142603.42071699825
100000.05481304122
100000.15500977673
100000.45401326624
100001.31245757593
100003.6648661957
100009.80366453428
100025.05988035256
100061.2083293932
100143.01699977886
100320.28778531622
100689.17372931751
101428.59940751577
102857.0788740948
105568.36025328012
110451.76617020536
118482.72219446882
130303.87332846907
145922.02857947734
100000.03174850375
100000.09211111913
100000.27635633832
100000.81753876293
100002.33454674076
100006.38166715845
100016.65390173034
100041.47493071626
100098.6413145575
100224.32832985117
100488.56968226664
101020.37804397276
102043.6200135788
103966.0973151678
107406.1071110569
113110.0708263893
121733.48889921638
133589.59826771662
148592.56517383258
100000.01796112224
100000.0534277494
100000.16417401498
100000.49701266181
100001.45151626176
100004.05548325727
100010.80836421359
100027.45977777276
100066.52958144592
100153.83641832766
100339.79954727941
100717.36271505793
101446.55018452625
102816.18700782658
105268.89529920586
109370.91748168723
115694.79454553509
124648.8451473077
136366.6071056947
150759.92858036875
100000.00994671487
100000.03027276635
100000.09522724952
100000.29499564233
100000.88117496838
100002.51678763765
100006.85227159446
100017.76876591635
100043.887561662
100103.29693040476
100231.79049507926
100495.90076124023
101010.59080057831
101983.54505637597
103737.77887643468
106705.15973384569
111364.35403409482
118123.94256473388
127224.45036651252
138713.8523071228
152537.47144081903
100000.00543842153
100000.01679088076
100000.05396891056
100000.17100752365
100000.52244995194
100001.5256599594
100004.24462304756
100011.23921044655
100028.31911908652
100067.91177271314
100155.02577957629
100336.7868567429
100695.54778591188
101381.19382476962
102631.42702460806
104776.78023896551
108210.46975012578
113311.15932848625
120356.02621605915
129480.72684015319
140703.79811936832
154014.24537124758
100000.00304159272
100000.00919079824
100000.0299439715
100000.09688330429
100000.30263486838
100000.90360491502
100002.56953228723
100006.95011361504
100017.87481995209
100043.71073289923
100101.62611876657
100224.54609977934
100470.96580372051
100948.62877075837
101832.35363438867
103374.42412274115
105893.62315286895
109727.32416740204
115160.62725548375
122376.09957731154
131449.34950676045
142399.7007900571
155259.5551426367
100000.00198131318
100000.00513739538
100000.01639297973
100000.05374441567
100000.17137101898
100000.52303713486
100001.52037550224
100004.20209887417
100011.03660842718
100027.54037276
100065.27831790871
100146.88720611935
100313.40564861351
100641.57739709652
101259.0360270633
102356.76397089417
104189.25534227784
107048.02551511917
111209.75870302523
116882.68991257202
124185.69125577937
133165.2921181364
143855.0535236671
156326.38365165127
100000.00333462398
100000.00915650402
100000.02941552235
100000.09503553592
100000.29603922462
100000.87947797042
100002.48429199446
100006.66601622124
100016.98405094228
100041.07454198731
100094.22709691506
100204.79990981628
100426.74770218496
100852.18622676491
101623.85056166394
102941.28390543458
105049.29116185689
108203.87573860276
112625.11546405005
118463.00307804836
125796.32135486703
134662.2916007462
145113.35980461122
157251.94823931737
100000.00593018752
100000.01641730675
100000.05199761956
100000.16412518463
100000.4976092437
100001.43639039574
100003.9385897429
100010.25097253252
100025.31176742495
100059.25129128025
100131.33251840148
100278.90185072651
100567.46973225546
101102.03564978387
102035.98869127884
103569.10717434595
105928.29616529653
109331.875945328
113952.3018577586
119898.25173169805
127224.7093936145
135971.36756519153
146208.57827307796
158064.0414238553
100000.01061441677
100000.02899811187
100000.08977447115
100000.27583147254
100000.81255335393
100002.27668646864
100006.05507715022
100015.27358110393
100036.50989012157
100082.60611509792
100178.96719421691
100371.39309899411
100735.76316913162
101387.52369650955
102485.23320557424
104222.15352018402
106802.82453527386
110410.47696058961
115179.88159720822
121191.69977982633
128489.0478616445
137118.84260250005
147168.24197076156
158780.15720973563
100000.0187191601
100000.05003082975
100000.15085435912
100000.4504177191
100001.28797075732
100003.50041312513
100009.02348616028
100022.03942484685
100050.94161463997
100112.68934884088
100238.71442378774
100482.80458226724
100929.97201033251
101702.67266929708
102959.63058402164
104882.93442912259
107653.81352491013
111425.05700966566
116303.33752529763
122350.86779154062
129607.06159782119
138127.3495434062
148009.71282463908
159412.70720580727
100000.03224934264
100000.08402351844
100000.24634747051
100000.71414058388
100001.981015057
100005.21925684145
100013.03130548136
100030.79076328073
100069.59559445544
100150.59775822655
100311.1581126989
100612.495420757
101146.72824182898
102039.88152617893
103446.84648852402
105536.09787176209
108466.84553182221
112367.11714998
117323.24176011952
123386.0631889735
130595.34961025917
139014.731816467
148751.24872799823
159970.4945868532
100000.05408976333
100000.13716764058
100000.39071236925
100001.09909237307
100002.9563063987
100007.54636986746
100018.2370055066
100042.14315926796
100093.20810435487
100196.84125246386
100396.14642839013
100758.65816773534
101381.35142413164
102390.77755085862
103935.29139501037
106169.12271677781
109232.10354307073
113232.77482435323
118243.09195579181
124307.38640876875
131468.6775545076
139795.25479807565
149401.84741688642
160460.93607640482
100000.08820520528
100000.21755147485
100000.60174913089
100001.64202199968
100004.28100256687
100010.58355967632
100025.01531657294
100056.57552392306
100122.17504110945
100251.48133145864
100492.77332418949
100918.5144453636
101628.38115641072
102747.04105965607
104414.90661667823
106772.6080697921
109943.63252895391
114021.81360919622
119068.93373469471
125126.42044316736
132240.21547299364
140482.10789540617
149973.09707397176
160886.02854031345
100000.13978967906
100000.33520893578
100000.90011967422
100002.38212516639
100006.01908471413
100014.55344041446
100033.66890602546
100074.37593008048
100156.63091724816
100314.10274050896
100599.4409272656
101088.60310641404
101882.09072095864
103101.0980389189
104877.60225856872
107340.07845321478
110598.75549043028
114736.64757712522
119808.0536998656
125853.21897288399
132921.07815049848
141086.55950703006
150472.71526775137
161256.21646748777
100000.21533175847
100000.5019684561
100001.30849276304
100003.35893344287
100008.29989055007
100019.64274420757
100044.3975822401
100095.68234583849
100196.41101490444
100383.8223236519
100714.03030755706
101265.1274320394
102137.01068975915
103446.48985933574
105317.41553780319
107867.8989854384
111197.55867646985
115380.5513988606
120467.75489225557
126498.86326251285
133522.92812278031
141618.49739430693
150908.7686250065
161571.8194535312
100000.32258155962
100000.73118424845
100001.85098691809
100004.64603954145
100011.23605091144
100025.98413285433
100057.31581946847
100120.45258317243
100241.05371191193
100459.38486817827
100834.11058485339
101444.31277363723
102388.29839573707
103778.17616693849
105730.45729344076
108354.28134413698
111741.77439905294
115960.08853880277
121056.86435092048
127072.44068877127
134055.22577960885
142084.85765799807
151287.45561294924
161836.80880093965
100000.47052436172
100001.03787295392
100002.56884313145
100006.30967499582
100014.91240617067
100033.66348343088
100072.43278575885
100148.456170481
100289.83660337541
100539.28049695774
100957.15561843675
101622.67401528948
102631.99353492667
104092.60697548428
106114.72673256823
108800.27674877613
112234.30352482542
116480.33274767135
121583.25155537802
127582.12574788762
134526.48350884224
142494.9750351098
151613.79062540515
162055.36752366452
100000.66974782958
100001.44536658021
100003.50037597006
100008.40266686094
100019.38897603416
100042.70631400593
100089.64430296501
100179.29553949575
100341.84872698392
100621.87765502368
101080.77345041187
101797.26204289806
102865.10913734717
104387.68557237799
106469.55389777332
109207.2715955306
112680.29491950183
116948.16448489644
122054.51986549317
128036.61531953784
134943.03691487858
142852.84380764887
151888.4091341063
162228.9858356547
100000.93530636563
100001.97613081154
100004.67776834336
100010.9649933369
100024.69226928212
100053.07109377821
100108.73779175308
100212.43843047952
100396.0765277519
100705.58825834846
101202.84498512463
101965.78410964135
103085.800678335
104662.45434758856
106795.98432905658
109577.88501376488
113083.66079093472
117369.99341574323
122477.66485016415
128442.09291527519
135310.46677937228
143160.0353745135
152111.365462094
162343.29994131599
100001.28210318266
100002.64994185726
100006.12675276943
100014.01831469797
100030.81048106939
100064.65065473571
100129.41225699274
100247.26977166679
100451.49194451689
100788.95799126456
101321.67621921485
102126.53463984556
103292.92198539025
104917.19076352703
107095.63441890576
109915.8795081583
113449.9916428477
117751.64834163451
122858.23899502569
128802.57296625925
135629.17709515872
143409.8274573152
152258.77384631065
100001.72380566726
100003.48330782437
100007.86336282743
100017.56296744275
100037.69222090262
100077.2809135194
100151.30945040996
100283.15056977402
100507.14203282053
100870.79337789075
101436.0331986939
102278.80955634297
103486.49151820334
105152.8810624062
107370.97349125719
110225.01731660268
113783.75597185302
118096.77636871436
123198.84309903062
129118.01928551923
135890.83376296825
143577.04971444042
100002.2722136091
100004.48768250241
100009.89187833665
100021.57650682678
100045.2510737161
100090.75680693374
100174.04077460704
100319.47329171772
100562.2210275039
100950.21245121592
101545.20381538403
102422.23543398795
103666.98225404053
105371.19613734708
107624.64755951753
110508.73501801201
114088.30324385702
118409.09039142891
123498.73321345927
129378.54277395301
136066.74769361483
100002.93604096341
100005.66792604577
100012.20365949385
100026.01543111613
100053.37457182894
100104.851926169
100197.229939185
100355.70122166951
100616.05980953417
101026.57694888789
101648.77746329016
102556.92657420904
103835.40992851366
105573.7679284634
107859.14506456863
110769.76098959832
114365.35468229589
118685.53004133391
123749.08999693418
129554.34717131178
100003.71994526399
100007.02168704725
100014.77799206771
100030.81959926337
100061.93458967979
100119.34113969094
100220.54067601246
100391.42141597848
100668.29143783558
101099.63161665155
101746.89304480232
102683.61351127396
103992.96381246639
105762.32221389901
108076.4191589767
111008.52602742527
114612.78900716043
118917.04829151537
123917.99639401153
100004.62386848227
100008.53947148965
100017.58393027476
100035.91898780683
100070.79968998003
100134.01865623285
100243.70364916528
100426.3166009474
100718.67006017303
101169.44045433706
101839.87010852061
102803.06960848821
104140.80368838378
105938.36080726942
108276.79918536017
111223.10482560327
114820.48435019108
119074.26504424139
100005.64315715113
100010.20576707889
100020.58414933263
100041.23958714711
100079.84986112762
100148.7185243408
100266.51504785867
100460.2457992727
100767.12448413332
101236.02868547678
101928.24130226232
102916.0382756983
104279.78168211268
106101.89893888011
108458.11336686085
111404.84510711176
114962.47825872463
100006.76903583565
100012.00065857073
100023.73809722181
100046.71143791731
100088.97628480624
100163.3036934983
100288.86546331822
100493.14861824691
100813.76221318182
101299.88809902791
102012.46142979883
103023.0198483063
104409.74916835612
106250.70625066676
108611.93425283692
111528.66831108715
100007.98968128674
100013.902308593
100027.0068808414
100052.27519499676
100098.11270893936
100177.70873577436
100310.71344792866
100525.06950513674
100858.78170477613
101361.12317080337
102092.65831357657
103123.63228921805
104528.74866224281
106377.62495568892
108717.20692266751
100009.29169760155
100015.88912822919
100030.35807685157
100057.88728037839
100107.20595975545
100191.90041152923
100332.08488393211
100556.10538754036
100902.31269925793
101419.9207386461
102168.77428028497
103216.21202413666
104630.63042446508
106464.6961540405
100010.66181923621
100017.94252082854
100033.7623693773
100063.51289092664
100116.22998986709
100205.88717889471
100353.01047836884
100586.33951270857
100944.42085810435
101476.0081817355
102239.10714232422
103296.08999970618
104700.72133493333
100012.08770794517
100020.04750964198
100037.20779249538
100069.14832896652
100125.19292919192
100219.68990984197
100373.53397470899
100615.7800104349
100984.7847265191
101528.20640806637
102299.97789064977
103351.05411732048
100013.56038326058
100022.1939473226
100040.6825669872
100074.78348263066
100134.10647859443
100233.33066564762
100393.66106187722
100644.19925370887
101022.55050852473
101573.47943905165
102342.07881133098
100015.0733439669
100024.3782949546
100044.18792370008
100080.4318386777
100142.98171846633
100246.79543921674
100413.21591277582
100670.94717180099
101055.54571701284
101604.97563760896
100016.62489791805
100026.60064266932
100047.72865813323
100086.09728969615
100151.80392426102
100259.95652947054
100431.71350982707
100694.35935180805
101078.45900200987
100018.2149627092
100028.86331349298
100051.30746656103
100091.76450289608
100160.47098861773
100272.4750237973
100447.97750239959
100710.68108168722
100019.8443036863
100031.1670769764
100054.90786869469
100097.37090432947
100168.75405615926
100283.5195930021
100459.34532444974
100021.51381669324
100033.503392252
100058.49703733175
100102.75741047024
100176.11006669613
100291.2625805798
100023.21667089387
100035.84250604028
100061.9585683029
100107.54921533185
100181.2727103048
100024.9302288259
100038.11166437347
100065.05457614169
100110.93533287437
100026.60016775597
100040.15239346588
100067.24502592639
100028.104993067
100041.59805278752
100029.1749318271
SCALARS T float 1
LOOKUP_TABLE default
300.00694089798225
300.0068140639564
300.01180151946454
300.0064000187864
300.0116191412744
300.0220037871301
300.00577260143797
300.0109151102807
300.021699954515
300.0420682526388
300.0050121125129
300.0098318342546
300.0203605960632
300.04152958669823
300.0802691730201
300.0041971795415
300.00851813541163
300.01828297825074
300.0388793776812
300.0792822399467
300.1516202551167
300.0033955309483
300.0071152411494
300.0157727217989
300.03475923987804
300.07397129955694
300.149718972607
300.28339231963656
300.00265781158924
300.00574160522024
300.01311151933965
300.02981776193127
300.06574731173947
300.1389825225848
300.2793594798101
300.5258008746444
300.0020155423403
300.0044835241029
300.010527731439
300.0246327735185
300.05599897560523
300.12256662026596
300.25733833773506
300.515956697203
300.97429903965406
300.00148262451415
300.0033930520879
300.0081813581999
300.0196538270314
300.0459103932811
300.10345058453265
300.2245360961458
300.4696813691417
300.9463491064708
301.82083279632315
300.0010590098022
300.0024917212009
300.0061638209419
300.0151806570767
300.0363556451154
300.08402743049504
300.18732579001966
300.40384087843717
300.84562645930896
301.7308207618944
303.4867199352451
300.00073518645166
300.00177753728946
300.0045082874007
300.0113726315082
300.02788231959585
300.06594842373755
300.1504281854688
300.3319184862188
300.7124506720185
301.5017785619523
303.16740525522425
307.01245742345316
300.00049644834917
300.0012329633622
300.00320484884435
300.0082757557247
300.02075281644534
300.0501641367634
300.1168216901272
300.2628514371723
300.57447632133335
301.2302282581777
302.62311260335673
305.78305426079464
315.30341682230636
300.0003263141392
300.00083222014996
300.00221639344227
300.00585665546015
300.01501445516806
300.0370640539413
300.08802581824324
300.2016108847772
300.4473447424179
300.9683704180497
302.06871360187756
304.4584254313552
310.20671284254956
322.41430187492847
300.00020890555976
300.00054698897054
300.0014923477971
300.00403459188465
300.01057189289526
300.02664345968606
300.06450415792864
300.15029138062937
300.3382408695659
300.73927434163136
301.58145062177135
303.35091110393336
307.1554341397753
314.9592935812775
327.5728121518656
300.00013033350064
300.00035028670544
300.00097895165294
300.00270762382326
300.00725119692527
300.018656405564
300.0460420509863
300.1091306618888
300.24914410116384
300.5500827816944
301.1807285732892
302.4794583465329
305.11845193860603
310.32543658542465
319.2343306637614
331.49549622521954
300.0000792811426
300.00021867464955
300.00062597593273
300.0017712749821
300.00484839154416
300.01273632731534
300.0320474638639
300.07730152588795
300.1791317587509
300.4000018275632
300.8637509229984
301.80957564496396
303.6790769932629
307.2749214466395
313.55007355258
322.8800951640597
334.55204704006394
300.00004704259845
300.000133138288
300.00039036063566
300.0011300798283
300.0031619803178
300.0084824910669
300.0217692767901
300.05346551711614
300.12586487466945
300.2846518032777
300.6199310622382
301.30233006467444
302.6355960987213
305.16835726921244
309.63132848591073
316.5786971327874
325.936180954016
336.9673560952084
300.0000272421828
300.00007908994854