# vtk DataFile Version 2.0
JuliaCFD
ASCII
DATASET UNSTRUCTURED_GRID

POINTS 1900 float
0.0 0.0 0.005
0.0 0.0416667 0.005
0.0 0.0833333 0.005
0.0 0.125 0.005
0.0 0.166667 0.005
0.0 0.208333 0.005
0.0 0.25 0.005
0.0 0.291667 0.005
0.0 0.333333 0.005
0.0 0.375 0.005
0.0 0.416667 0.005
0.0 0.458333 0.005
0.0 0.5 0.005
0.0 0.541667 0.005
0.0 0.583333 0.005
0.0 0.625 0.005
0.0 0.666667 0.005
0.0 0.708333 0.005
0.0 0.75 0.005
0.0 0.791667 0.005
0.0 0.833333 0.005
0.0 0.875 0.005
0.0 0.916667 0.005
0.0 0.958333 0.005
0.0 1.0 0.005
0.0409575 0.0 0.005
0.0409401 0.0416667 0.005
0.0409227 0.0833333 0.005
0.0409054 0.125 0.005
0.040888 0.166667 0.005
0.0408706 0.208333 0.005
0.0408532 0.25 0.005
0.0408359 0.291667 0.005
0.0408185 0.333333 0.005
0.0408011 0.375 0.005
0.0407838 0.416667 0.005
0.0407664 0.458333 0.005
0.040749 0.5 0.005
0.0407316 0.541667 0.005
0.0407143 0.583333 0.005
0.0406969 0.625 0.005
0.0406795 0.666667 0.005
0.0406621 0.708333 0.005
0.0406448 0.75 0.005
0.0406274 0.791667 0.005
0.04061 0.833333 0.005
0.0405927 0.875 0.005
0.0405753 0.916667 0.005
0.0405579 0.958333 0.005
0.0405405 1.0 0.005
0.0819149 0.0 0.005
0.0818802 0.0416667 0.005
0.0818455 0.0833333 0.005
0.0818107 0.125 0.005
0.081776 0.166667 0.005
0.0817412 0.208333 0.005
0.0817065 0.25 0.005
0.0816717 0.291667 0.005
0.081637 0.333333 0.005
0.0816022 0.375 0.005
0.0815675 0.416667 0.005
0.0815328 0.458333 0.005
0.081498 0.5 0.005
0.0814633 0.541667 0.005
0.0814285 0.583333 0.005
0.0813938 0.625 0.005
0.081359 0.666667 0.005
0.0813243 0.708333 0.005
0.0812895 0.75 0.005
0.0812548 0.791667 0.005
0.0812201 0.833333 0.005
0.0811853 0.875 0.005
0.0811506 0.916667 0.005
0.0811158 0.958333 0.005
0.0810811 1.0 0.005
0.122872 0.0 0.005
0.12282 0.0416667 0.005
0.122768 0.0833333 0.005
0.122716 0.125 0.005
0.122664 0.166667 0.005
0.122612 0.208333 0.005
0.12256 0.25 0.005
0.122508 0.291667 0.005
0.122455 0.333333 0.005
0.122403 0.375 0.005
0.122351 0.416667 0.005
0.122299 0.458333 0.005
0.122247 0.5 0.005
0.122195 0.541667 0.005
0.122143 0.583333 0.005
0.122091 0.625 0.005
0.122039 0.666667 0.005
0.121986 0.708333 0.005
0.121934 0.75 0.005
0.121882 0.791667 0.005
0.12183 0.833333 0.005
0.121778 0.875 0.005
0.121726 0.916667 0.005
0.121674 0.958333 0.005
0.121622 1.0 0.005
0.16383 0.0 0.005
0.16376 0.0416667 0.005
0.163691 0.0833333 0.005
0.163621 0.125 0.005
0.163552 0.166667 0.005
0.163482 0.208333 0.005
0.163413 0.25 0.005
0.163343 0.291667 0.005
0.163274 0.333333 0.005
0.163204 0.375 0.005
0.163135 0.416667 0.005
0.163066 0.458333 0.005
0.162996 0.5 0.005
0.162927 0.541667 0.005
0.162857 0.583333 0.005
0.162788 0.625 0.005
0.162718 0.666667 0.005
0.162649 0.708333 0.005
0.162579 0.75 0.005
0.16251 0.791667 0.005
0.16244 0.833333 0.005
0.162371 0.875 0.005
0.162301 0.916667 0.005
0.162232 0.958333 0.005
0.162162 1.0 0.005
0.204787 0.0 0.005
0.2047 0.0416667 0.005
0.204614 0.0833333 0.005
0.204527 0.125 0.005
0.20444 0.166667 0.005
0.204353 0.208333 0.005
0.204266 0.25 0.005
0.204179 0.291667 0.005
0.204092 0.333333 0.005
0.204006 0.375 0.005
0.203919 0.416667 0.005
0.203832 0.458333 0.005
0.203745 0.5 0.005
0.203658 0.541667 0.005
0.203571 0.583333 0.005
0.203484 0.625 0.005
0.203398 0.666667 0.005
0.203311 0.708333 0.005
0.203224 0.75 0.005
0.203137 0.791667 0.005
0.20305 0.833333 0.005
0.202963 0.875 0.005
0.202876 0.916667 0.005
0.20279 0.958333 0.005
0.202703 1.0 0.005
0.245745 0.0 0.005
0.245641 0.0416667 0.005
0.245536 0.0833333 0.005
0.245432 0.125 0.005
0.245328 0.166667 0.005
0.245224 0.208333 0.005
0.245119 0.25 0.005
0.245015 0.291667 0.005
0.244911 0.333333 0.005
0.244807 0.375 0.005
0.244703 0.416667 0.005
0.244598 0.458333 0.005
0.244494 0.5 0.005
0.24439 0.541667 0.005
0.244286 0.583333 0.005
0.244181 0.625 0.005
0.244077 0.666667 0.005
0.243973 0.708333 0.005
0.243869 0.75 0.005
0.243764 0.791667 0.005
0.24366 0.833333 0.005
0.243556 0.875 0.005
0.243452 0.916667 0.005
0.243347 0.958333 0.005
0.243243 1.0 0.005
0.286702 0.0 0.005
0.286581 0.0416667 0.005
0.286459 0.0833333 0.005
0.286337 0.125 0.005
0.286216 0.166667 0.005
0.286094 0.208333 0.005
0.285973 0.25 0.005
0.285851 0.291667 0.005
0.285729 0.333333 0.005
0.285608 0.375 0.005
0.285486 0.416667 0.005
0.285365 0.458333 0.005
0.285243 0.5 0.005
0.285121 0.541667 0.005
0.285 0.583333 0.005
0.284878 0.625 0.005
0.284757 0.666667 0.005
0.284635 0.708333 0.005
0.284513 0.75 0.005
0.284392 0.791667 0.005
0.28427 0.833333 0.005
0.284149 0.875 0.005
0.284027 0.916667 0.005
0.283905 0.958333 0.005
0.283784 1.0 0.005
0.32766 0.0 0.005
0.327521 0.0416667 0.005
0.327382 0.0833333 0.005
0.327243 0.125 0.005
0.327104 0.166667 0.005
0.326965 0.208333 0.005
0.326826 0.25 0.005
0.326687 0.291667 0.005
0.326548 0.333333 0.005
0.326409 0.375 0.005
0.32627 0.416667 0.005
0.326131 0.458333 0.005
0.325992 0.5 0.005
0.325853 0.541667 0.005
0.325714 0.583333 0.005
0.325575 0.625 0.005
0.325436 0.666667 0.005
0.325297 0.708333 0.005
0.325158 0.75 0.005
0.325019 0.791667 0.005
0.32488 0.833333 0.005
0.324741 0.875 0.005
0.324602 0.916667 0.005
0.324463 0.958333 0.005
0.324324 1.0 0.005
0.368617 0.0 0.005
0.368461 0.0416667 0.005
0.368305 0.0833333 0.005
0.368148 0.125 0.005
0.367992 0.166667 0.005
0.367835 0.208333 0.005
0.367679 0.25 0.005
0.367523 0.291667 0.005
0.367366 0.333333 0.005
0.36721 0.375 0.005
0.367054 0.416667 0.005
0.366897 0.458333 0.005
0.366741 0.5 0.005
0.366585 0.541667 0.005
0.366428 0.583333 0.005
0.366272 0.625 0.005
0.366116 0.666667 0.005
0.365959 0.708333 0.005
0.365803 0.75 0.005
0.365647 0.791667 0.005
0.36549 0.833333 0.005
0.365334 0.875 0.005
0.365178 0.916667 0.005
0.365021 0.958333 0.005
0.364865 1.0 0.005
0.409575 0.0 0.005
0.409401 0.0416667 0.005
0.409227 0.0833333 0.005
0.409054 0.125 0.005
0.40888 0.166667 0.005
0.408706 0.208333 0.005
0.408532 0.25 0.005
0.408359 0.291667 0.005
0.408185 0.333333 0.005
0.408011 0.375 0.005
0.407838 0.416667 0.005
0.407664 0.458333 0.005
0.40749 0.5 0.005
0.407316 0.541667 0.005
0.407143 0.583333 0.005
0.406969 0.625 0.005
0.406795 0.666667 0.005
0.406621 0.708333 0.005
0.406448 0.75 0.005
0.406274 0.791667 0.005
0.4061 0.833333 0.005
0.405927 0.875 0.005
0.405753 0.916667 0.005
0.405579 0.958333 0.005
0.405405 1.0 0.005
0.450532 0.0 0.005
0.450341 0.0416667 0.005
0.45015 0.0833333 0.005
0.449959 0.125 0.005
0.449768 0.166667 0.005
0.449577 0.208333 0.005
0.449386 0.25 0.005
0.449195 0.291667 0.005
0.449003 0.333333 0.005
0.448812 0.375 0.005
0.448621 0.416667 0.005
0.44843 0.458333 0.005
0.448239 0.5 0.005
0.448048 0.541667 0.005
0.447857 0.583333 0.005
0.447666 0.625 0.005
0.447475 0.666667 0.005
0.447284 0.708333 0.005
0.447093 0.75 0.005
0.446901 0.791667 0.005
0.44671 0.833333 0.005
0.446519 0.875 0.005
0.446328 0.916667 0.005
0.446137 0.958333 0.005
0.445946 1.0 0.005
0.49149 0.0 0.005
0.491281 0.0416667 0.005
0.491073 0.0833333 0.005
0.490864 0.125 0.005
0.490656 0.166667 0.005
0.490447 0.208333 0.005
0.490239 0.25 0.005
0.49003 0.291667 0.005
0.489822 0.333333 0.005
0.489613 0.375 0.005
0.489405 0.416667 0.005
0.489197 0.458333 0.005
0.488988 0.5 0.005
0.48878 0.541667 0.005
0.488571 0.583333 0.005
0.488363 0.625 0.005
0.488154 0.666667 0.005
0.487946 0.708333 0.005
0.487737 0.75 0.005
0.487529 0.791667 0.005
0.48732 0.833333 0.005
0.487112 0.875 0.005
0.486903 0.916667 0.005
0.486695 0.958333 0.005
0.486486 1.0 0.005
0.531954 0.00563435 0.005
0.531749 0.0470663 0.005
0.531544 0.0884982 0.005
0.531338 0.12993 0.005
0.531133 0.171362 0.005
0.530928 0.212794 0.005
0.530722 0.254226 0.005
0.530517 0.295658 0.005
0.530312 0.33709 0.005
0.530107 0.378521 0.005
0.529901 0.419953 0.005
0.529696 0.461385 0.005
0.529491 0.502817 0.005
0.529285 0.544249 0.005
0.52908 0.585681 0.005
0.528875 0.627113 0.005
0.528669 0.668545 0.005
0.528464 0.709977 0.005
0.528259 0.751409 0.005
0.528054 0.79284 0.005
0.527848 0.834272 0.005
0.527643 0.875704 0.005
0.527438 0.917136 0.005
0.527232 0.958568 0.005
0.527027 1.0 0.005
0.572289 0.0127465 0.005
0.572093 0.0538821 0.005
0.571896 0.0950177 0.005
0.571699 0.136153 0.005
0.571502 0.177289 0.005
0.571306 0.218424 0.005
0.571109 0.25956 0.005
0.570912 0.300695 0.005
0.570715 0.341831 0.005
0.570519 0.382967 0.005
0.570322 0.424102 0.005
0.570125 0.465238 0.005
0.569928 0.506373 0.005
0.569732 0.547509 0.005
0.569535 0.588644 0.005
0.569338 0.62978 0.005
0.569142 0.670916 0.005
0.568945 0.712051 0.005
0.568748 0.753187 0.005
0.568551 0.794322 0.005
0.568355 0.835458 0.005
0.568158 0.876593 0.005
0.567961 0.917729 0.005
0.567764 0.958864 0.005
0.567568 1.0 0.005
0.612625 0.0198587 0.005
0.612436 0.0606979 0.005
0.612248 0.101537 0.005
0.61206 0.142376 0.005
0.611872 0.183216 0.005
0.611684 0.224055 0.005
0.611496 0.264894 0.005
0.611307 0.305733 0.005
0.611119 0.346572 0.005
0.610931 0.387412 0.005
0.610743 0.428251 0.005
0.610555 0.46909 0.005
0.610366 0.509929 0.005
0.610178 0.550769 0.005
0.60999 0.591608 0.005
0.609802 0.632447 0.005
0.609614 0.673286 0.005
0.609425 0.714125 0.005
0.609237 0.754965 0.005
0.609049 0.795804 0.005
0.608861 0.836643 0.005
0.608673 0.877482 0.005
0.608484 0.918322 0.005
0.608296 0.959161 0.005
0.608108 1.0 0.005
0.65296 0.0269708 0.005
0.65278 0.0675137 0.005
0.652601 0.108057 0.005
0.652421 0.148599 0.005
0.652241 0.189142 0.005
0.652062 0.229685 0.005
0.651882 0.270228 0.005
0.651702 0.310771 0.005
0.651523 0.351314 0.005
0.651343 0.391857 0.005
0.651164 0.4324 0.005
0.650984 0.472943 0.005
0.650804 0.513485 0.005
0.650625 0.554028 0.005
0.650445 0.594571 0.005
0.650265 0.635114 0.005
0.650086 0.675657 0.005
0.649906 0.7162 0.005
0.649726 0.756743 0.005
0.649547 0.797286 0.005
0.649367 0.837828 0.005
0.649188 0.878371 0.005
0.649008 0.918914 0.005
0.648828 0.959457 0.005
0.648649 1.0 0.005
0.693295 0.034083 0.005
0.693124 0.0743295 0.005
0.692953 0.114576 0.005
0.692782 0.154823 0.005
0.692611 0.195069 0.005
0.69244 0.235316 0.005
0.692269 0.275562 0.005
0.692098 0.315809 0.005
0.691926 0.356055 0.005
0.691755 0.396302 0.005
0.691584 0.436548 0.005
[...]
CELL_DATA 888
SCALARS P float 1
LOOKUP_TABLE default
100118.3307259731
100118.0021644497
100167.7899203359
100115.77454327773
100167.65950675104
100241.32949189111
100111.95818491747
100164.55239435827
100241.55869519812
100350.79134481579
100106.84883386092
100159.0285860182
100237.0152693972
100351.6367339024
100514.03339131502
100100.74495040237
100151.58925551812
100228.67986000654
100344.6920534146
100515.91208977951
100758.31444703748
100093.9406649705
100142.7132475169
100217.4257828948
100331.68260087213
100504.84449855708
100761.8467643182
101126.08964392499
100086.7124640857
100132.85402495455
100204.06253699958
100314.16133643723
100483.94613985787
100743.44359107917
101131.9192418891
101685.76046284156
100079.30726382326
100122.42512238603
100189.32784684705
100293.53509885291
100456.04211417629
100708.95617734226
101099.80938623953
101693.33774752833
102554.15933386177
100071.93486730836
100111.786958567
100173.8687833628
100271.03710603123
100423.62117512341
100663.65640635976
101041.30813559049
101633.95722124563
102556.13901016109
103950.89074757557
100064.76504911135
100101.23929964768
100158.22802270776
100247.70068697273
100388.76566390104
100611.99041776577
100966.4788622763
101531.70203474007
102438.31092230586
103909.38907304581
106352.76166528925
100057.92835376455
100091.01988376289
100142.8406926271
100224.35346257043
100353.13168908388
100557.46805734049
100883.26841216773
101406.06016185379
102253.58855860415
103655.96706422504
106096.26311254204
111009.91361853207
100051.5195826799
100081.30791105836
100128.03913979416
100201.6258657525
100317.96936830103
100502.70383427039
100797.49166187359
101271.00939810358
102039.4738777267
103310.63277666456
105505.06040131893
109749.15265472814
121990.68735254902
100045.60268039184
100072.23056597343
100114.06382748258
100179.97509544388
100284.17677853716
100449.53944962556
100713.13523061942
101135.77668407177
101819.33849455086
102941.53410188766
104840.1055183299
108284.56371008357
115755.08966296072
132140.8773803381
100040.21626274339
100063.87111318803
100101.07722945561
100159.71206246757
100252.35864266945
100399.19476887149
100632.76703805865
101006.04872384752
101606.58062237383
102583.02339907076
104201.71410920324
106993.19441017993
112212.92420194538
122457.97771645467
140049.8758696162
100035.37921022497
100056.27732224975
100089.17832973287
100141.02975936368
100222.8902978731
100352.41596451121
100557.9137475172
100885.05382515457
101408.25487124297
102250.81628033439
103623.30687040332
105905.7356507477
109838.01272552191
116881.79305715981
128844.52729348042
146419.7705681317
100031.09585865718
100049.46983290174
100078.41659931022
100124.03028201948
100195.97340911235
100309.598939028
100489.36654496539
100774.39125361964
101227.57466924068
101950.95637798538
103112.4622367948
104994.86784467855
108085.34398855882
113284.52845427493
121813.68159752154
134627.7628284777
151625.62241042813
100027.36071612466
100043.44950989737
100068.80482490004
100108.74750549371
100171.68100016151
100270.89279946208
100427.4200654467
100674.62143363383
101065.50972188293
101684.58379091405
102667.02982080192
104229.91006505422
106719.63971409769
110741.43992418077
117126.67645671184
126683.39866487666
139758.87586724712
155896.7611383952
100024.16271263533
100038.20413158943
100060.33007593664
100095.16770462494
100149.99758091859
100236.2771490373
100372.03936992762
100585.65645800772
100921.75355143688
101450.42226856256
102281.43321055848
103585.33924793788
105621.6592543012
108826.21535271218
113791.2092929195
121146.09665374045
131315.9854273085
144261.3358430053
159391.6539097416
100021.4889281965
100033.71428346747
100052.96305649598
100083.24517970721
100130.84782070125
100205.6222650102
100322.98685507137
100507.03310429752
100795.30947717567
101246.09031711602
101949.1540171294
103040.83478674255
104722.49851903312
107323.87444926704
111287.86792516783
117106.34953482382
125176.66691026589
135621.6459440067
148178.43190705605
162229.88882027552
100019.32822981212
100029.95858940203
100046.66658197997
100072.9163778896
100114.12192209644
100178.73268823823
100279.90751672855
100438.08147549075
100684.85225360388
101068.78120311901
101663.73251802342
102580.08742154352
103977.8208401423
106114.94749734014
109335.9400253406
114034.68333355736
120563.8212225386
129101.95087334373
139559.2860110299
151558.13785617403
164506.67073955812
100017.67527896716
100026.91888358684
100041.4026215799
100064.11027612274
100099.69205285684
100155.38026898779
100242.389029699
100378.03819166408
100588.93294137865
100915.62389201339
101419.18794897322
102189.84502180763
103356.80272205349
105126.42432205474
107774.20766057275
111623.17217554181
116984.83444437667
124058.74836260575
132843.92562777182
143114.86296043074
154447.99502472993
166301.17150742537
100016.53575503253
100024.58628680155
100037.1397096186
100056.75911332904
100087.42909824618
100135.32838693283
100210.00233609871
100326.12361732063
100506.10390054366
100783.87464554925
101210.14777623235
101859.1992497598
102836.60609342533
104309.85413744077
106503.39859368067
109686.53288557295
114135.40449553501
120057.02137176803
127507.49761601191
136352.89031505404
146290.15319744436
156893.7767941108
167681.33317720462
100015.93500794869
100022.96973440303
100033.86196305731
100050.80803667556
100077.21447762902
100118.35061512138
100182.33139489168
100281.58269560813
100434.99476651098
100671.01057115618
101031.87923462593
101579.09857802639
102399.66711894494
103630.91137927458
105457.78074686094
108107.15019105573
111823.901477726
116814.8435862299
123176.93798250945
130846.01295611307
139598.9137402622
149097.08404624392
158939.28758802934
168706.7517727369
100022.11059534983
100031.58210008428
100046.22821775869
100068.95461180535
100104.24669638522
100158.99532870189
100243.71965967986
100374.34930401914
100574.76244378668
100880.2589113447
101341.99449464539
102032.11561467037
103063.97854081701
104591.18348398454
106805.87135404689
109924.57522161826
114148.24845974751
119602.29739184688
126280.69561174554
134027.12639495282
142565.94689981252
151552.89479686818
160625.73603257712
169427.49502783612
100030.36398799386
100043.03568596511
100062.59776538747
100092.86041273731
100139.66732587981
100211.91789643205
100323.04931041574
100493.1346321652
100751.73874638128
101141.56688799411
101722.75408988475
102589.33618712446
103869.51777740293
105726.42695500479
108350.67849700699
111932.79071141419
116615.82953263706
122441.2669563356
129315.17862006128
137017.34865292275
145248.4538082822
153678.76440688004
161991.58811475828
169890.42313995
100041.32422774997
100058.16144535839
100084.10256030281
100124.09387633317
100185.65832440714
100280.13140304337
100424.4035629273
100643.28564836456
100972.53694656877
101462.47466553714
102191.40784119951
103266.69111472396
104826.98062097668
107039.22126985388
110080.38907066341
114101.73549489302
119180.87747707013
125280.65843819598
132238.158686758
139794.61568907107
147648.46491822385
155497.72016718297
163074.0730968507
170132.4582677159
100055.77813503148
100077.98778181862
100112.12662232692
100164.54421482499
100244.79944630754
100367.11339511
100552.33970088982
100830.49340429933
101243.81329871762
101857.6980072226
102762.258332108
104075.39886474954
105942.59491593462
108525.4733548026
111975.9910745994
116396.63256575623
121798.34787777156
128075.75828907943
135016.9516991178
142345.98008266406
149773.7146434828
157034.58877345663
163904.76514442987
170190.7916698841
100074.69815659354
100103.77031059888
100148.33695551891
100216.44883524158
100320.08003767674
100476.77644653442
100711.78053840072
101060.64093054464
101578.08958023225
102339.91372984134
103446.36862786181
105023.64051714037
107217.40938542102
110174.7274178943
114012.87883288212
118780.57752092494
124425.92403930107
130789.08268103647
137627.74266681046
144665.79271444824
151636.21439487732
158313.77487496662
164517.23185850383
170094.8293592245
100099.27047560006
100137.02161003591
100194.71140926787
100282.41225885731
100414.8920748937
100613.40658154443
100907.93264949479
101344.36772573226
101986.52305283611
102919.62801028417
104252.77151457494
106115.7881515053
108647.20668913875
111970.85883070197
116162.56346043314
121216.38885947574
127025.45506712653
133390.11055603492
140054.22999664137
146753.37641962315
153250.6433150684
159359.5871145881
164938.74151593682
169876.56678153327
100130.92364050947
100179.53790455696
100253.56035110255
100365.41070311885
100532.99813609823
100781.62992551012
101149.84885998598
101691.43797204393
102478.83002251705
103606.05660112451
105187.83466947464
107352.03415139788
110222.72072439776
113893.24060120726
118394.31557338504
123668.34494878721
129563.55842890913
135855.05290807827
142286.5935575993
148613.85069325595
154633.74029541377
160196.891075045
165198.55943503915
169557.88673876322
100171.35490779491
100233.42319581866
100327.54054195379
100468.78325978464
100678.52895040672
100989.15954918414
101446.03805298722
102110.70622697374
103064.01514623103
104406.6183122272
106254.71099340425
108728.25998909555
111930.06024681339
115917.87347584055
120676.68716092464
126103.18140462707
132012.07674438704
138166.7363506427
144320.57179182183
150255.1832150869
155803.29276847426
160850.1834413973
165322.24703892277
169170.43667772078
100222.55585320079
100301.1098607373
100419.6642916065
100596.2537345169
100858.08604104751
101243.41723823527
101804.50324684051
102610.70827735765
103749.87837594096
105326.32756732938
107453.04783455998
110236.13382433618
113751.55124412445
118018.60559060334
122978.84851735218
128491.22121136982
134348.2680874305
140312.4275604908
146155.82059305153
151689.30799194355
156779.13471337248
161343.47212389085
165336.82422109845
168736.09089005002
100286.8353858757
100385.37787044469
100533.33361321007
100753.5255619225
101078.16827628121
101551.59041289041
102233.17579252401
103199.24675380372
104542.55213877404
106367.48042886505
108778.88094355131
111863.5462718775
115666.55353043004
120168.33836538905
125271.63101874058
130806.16790319068
136554.4543773352
142286.27538845877
147796.85275513688
152929.11738769125
157581.1064545804
161700.37270935663
165268.38575103416
168286.66859657367
100366.84629777742
100489.4013725747
100673.55197491417
100946.3197499847
101345.21450103052
101920.9602249539
102739.58470843453
103882.94491689447
105446.06212078093
107529.38577656631
110224.69492221803
113595.0431375128
117652.42589379067
122340.0587823295
127528.29588057302
133027.09003345456
138617.08654176578
144084.369541199
149250.42994307028
153989.2153312799
158230.01549585033
161946.62931679582
165146.00332727702
167856.86651260415
100465.63705044052
100617.67769199169
100845.4173567192
101180.42401076226
101665.86944789208
102358.64822883066
103330.51957017461
104666.93682114632
106462.04626725512
108808.18665640641
111779.70799932415
115412.60778801609
119685.33703316335
124507.77230029313
129724.49720746774
135135.86077855452
140528.22056207687
145707.93866385528
150526.00212974087
154886.4600127697
158747.0630575062
162107.87853555765
165001.04863596792
167498.91642284248
100587.42637584238
100774.85682453352
101054.18004788583
101461.89531349803
102046.77092332314
102871.32295229538
104011.66209507456
105554.46174105082
107589.5160963955
110197.04840571055
113430.18443936945
117296.24313121106
121741.37986875165
126646.81056023583
131839.90286125024
137118.31860720876
142281.68118871684
147160.72709525717
151634.83894389257
155637.98430479455
159154.9155174914
162211.30843990992
164871.85921315456
167271.74930095594
100736.60436511404
100965.78617471707
101305.39529155147
101796.89287729202
102494.33929459678
103464.9057990637
104787.27894035474
106546.59617983492
108824.75677461635
111686.13246252957
115160.04836461076
119224.39023076318
123796.54453698797
128734.9260914978
133856.70040240735
138964.5568796865
143876.055567003
148448.33951994238
152589.2315359281
156261.26337643736
159474.97118312976
162282.61829354422
164793.7532891394
100917.79199677584
101195.62749956035
101604.77984946978
102191.49202349414
103014.48066834456
104144.26762275805
105659.9502560842
107642.08706555683
110161.31240907243
113263.04074865962
116951.26163484847
121175.79757228808
125828.42498164094
130751.90702884964
135760.30897223565
140667.0345032767
145311.2209063603
149576.958783588
153400.97852003586
156771.6906436899
159722.63141894547
162335.26063879635
101135.92233814648
101469.75178109457
101958.0633345592
102651.463079174
103612.33663211719
104912.91977151803
106630.22413196415
108837.2362708302
111590.14726885673
114913.1536315211
118784.51242176782
123128.13243615066
127815.41446234263
132679.94231203254
137538.45253587197
142220.1810942261
146588.15668587066
150553.75001259858
154078.8742847079
157174.5070622357
159889.9294553986
101396.1494430985
101793.58835233308
102370.79694046083
103182.01217781355
104292.02516945868
105772.75544860878
107696.53896782911
110125.78796512411
113099.48922824224
116619.54240627047
120639.05875870612
125059.42227861706
129737.3749306586
134502.4953710989
139180.37008480425
143619.4276604019
147706.92176700948
151379.36929765999
154619.08696236621
157442.4299550625
101703.72604862804
102172.47034792743
102848.13315041397
103787.54834480552
105056.33544764802
106723.85262028725
108855.05578303091
111499.13205711095
114675.87596953943
118364.12201952713
122494.2222842298
126948.76249326307
131575.1270842453
136204.42207404345
140675.9145530194
144857.96990482518
148661.73222598026
152040.20784794394
154975.414795156
102063.83239083618
102611.44437520944
103394.59731499346
104471.4444125981
105906.4918259117
107764.21886478094
110099.56350234979
112945.9427462165
116303.25434121345
120127.5383508762
124328.36644520023
128774.93369561345
133309.7696442526
137770.65485872026
142012.43541840714
145923.05358953727
149428.3113399433
152474.25488805678
102481.42022520126
103115.04752900983
104013.87263246326
105235.72370447466
106841.96875925337
108889.70671690235
111421.32216418051
114452.97533472217
117963.57594153762
121888.08487916931
126119.38176267051
130516.13135009163
134921.42742350014
139182.53257120456
143169.61157111803
146781.36444518718
149930.12284108924
102961.00633551953
103687.0874105985
104708.49098240763
106080.84856034252
107860.0698317324
110093.61121210204
112809.2294846955
116004.31489731387
119637.16068139678
123624.13551195196
127843.40265560224
132148.6719317746
136386.04519483613
140412.48505188664
144104.18641163118
147340.77522216813
103506.43650891614
104330.41112444406
105479.63761244772
107005.5162113829
108956.23613096963
111367.03645044418
114249.50809129908
117581.59833829135
121301.95002141438
125309.9819720762
129473.47362307388
133643.678983021
137669.63365712576
141408.8019112141
144712.0685516309
104120.67046011309
105046.61952543353
106326.90153957291
108006.3280517294
110123.05852153264
112698.10372994292
115725.60520285653
119163.60086539405
122932.60598693663
126917.47947638073
130978.05255635623
134961.35450475852
138712.3290172468
142055.65583840065
104805.53315547077
105835.83714428025
107247.76753702514
109077.35893972631
111350.41793900532
114071.9718721185
117217.32211013546
120725.41011904542
124499.58854777864
128411.31783443328
132311.39634527298
136035.59885820528
139388.51805061143
105561.38977788399
106696.35453715597
108237.78397785277
110210.39754897627
112625.2794415422
115470.12280988901
118700.60318287862
122236.9954763768
125965.2095735853
129742.84662576093
133401.519662169
136731.5128243387
106386.95215443778
107624.33053800558
109289.54706788289
111393.4591720402
113930.64801421064
116869.58903458784
120145.80583289437
123659.91287867133
127278.5214898711
130834.63695381337
134107.95460568095
107278.79376184162
108613.42924504493
110392.70840810509
112611.25873397413
115244.89012493187
118241.26111407935
121514.15123791747
124941.35644856787
128359.35233620014
131542.6027370748
108231.06567963364
109654.18033637505
111533.05373511469
113843.41275973347
116539.92524261965
119546.75289725918
122752.04916982865
125998.81425474155
129059.89665562828
109234.81144281536
110733.31705429328
112691.49434436283
115062.97279272297
117777.97677942888
120732.71027892464
123776.68987491904
126684.79304081274
110277.28218836761
111832.71267463795
113842.13777593155
116233.64945269488
118906.69736592258
121716.91198217169
124441.76831165208
111341.00520099573
112927.70877797024
114950.28656257894
117304.18529955683
119845.92312046312
122356.11853073511
112401.99264610116
113984.37422487896
115965.89490938558
118196.27837817972
120456.00584138537
113427.06399129187
114954.5156852895
116813.55379423028
118776.2363251451
114369.01269936847
115765.01419664099
117364.37565239829
115156.13493021773
116291.45323231714
115667.37059463744
SCALARS T float 1
LOOKUP_TABLE default
300.1021364845778
300.1018360419836
300.14523088379553
300.09989180782765
300.145079658428
300.20966814357575
300.09657239981186
300.14234407515
300.2097796603582
300.3062832416985
300.09213505258634
300.13750992418574
300.2057308886395
300.3068221231248
300.4517166864467
300.0868397247615
300.13101489194037
300.1983759883033
300.3005355652548
300.45291618482895
300.671904552131
300.08094244640915
300.12327819894546
300.1884820417089
300.28893545137527
300.44270148406395
300.6740132563668
301.00812448069604
300.07468349045666
300.1146966373294
300.17676229319
300.27339612823783
300.42382522686523
300.6566415946187
301.0110379487777
301.52808664048604
300.0682769466128
300.10563125751315
300.1638662709141
300.2551666765908
300.3988106342248
300.6250130320559
300.9799924744849
301.5297871511281
302.34812024246463
300.0619042320518
300.09639572163275
300.15036193042073
300.23534051860764
300.36988682194226
300.5838856481521
300.9254208042619
301.47110094777514
302.33861898279173
303.68272673196657
300.0557116861317
300.0872498794425
300.1367234112763
300.2148298315509
300.3389141547767
300.5372794455018
300.8565049625646
301.37404718765197
302.22048383535747
303.62087847468626
305.9714622985708
300.0498114094322
300.0783988530884
300.1233287043903
300.19436044662746
300.30736290819556
300.48835417651213
300.7804967681326
301.2565823577083
302.04252514173277
303.36684529395956
305.6927951961146
310.2518212378369
300.0442844239696
300.0699963922465
300.1104645029231
300.174480605551
300.27633256882325
300.4394423015096
300.7026665239487
301.13156058743954
301.8395236086471
303.03143336085594
305.1128251820334
309.0792849412641
319.36542773575786
300.03918501838535
300.06215083443163
300.098336429655
300.15558365716447
300.24660311746186
300.39216443814576
300.62657983794776
301.0073803058182
301.63306952768056
302.6779163546108
304.46965599445775
307.70939078799756
314.36534498814785
327.27855238841283
300.0345456163963
300.05493236675153
300.08708176890303
300.1379332566619
300.2186907207687
300.3475729694476
300.55448543381175
300.8891142441116
301.4353516434685
302.33806208657694
303.8565840289135
306.4866028324061
311.28008330242386
320.0116230694492
333.2023296448422
300.0303816695584
300.04838050143064
300.07678255980534
300.1216894594036
300.1929074233357
300.30629219842496
300.48767517464216
300.77953982535195
301.2525708689373
302.02604819498396
303.3049885250579
305.45076319755503
309.11292848442974
315.3995323157625
325.18005145573545
337.8472903303344
300.0266961742599
300.0425114324706
300.0674780707829
300.10693323034627
300.16941259046786
300.2686343120991
300.42677481464875
300.67993315446085
301.08732948968617
301.74688228920047
302.82156996620904
304.5830697707352
307.47473644557084
312.2350341339679
319.6142881125383
329.7023578315592
341.56799918872395
300.0234837581419
300.03732446159995
300.05917613503675
300.0936867923638
300.1482540232436
300.23469527019927
300.3719690414674
300.5906320426659
300.9401654125282
301.50096221215534
302.40350673554644
303.85719332501685
306.1851697101744
309.91376921146036
315.63559583850565
323.6454559390797
333.5991298204836
344.5725494121307
300.0207343471799
300.03280780599675
300.0518627580524