# vtk DataFile Version 2.0
JuliaCFD
ASCII
DATASET UNSTRUCTURED_GRID

POINTS 1900 float
0.0 0.0 0.005
0.0 0.0416667 0.005
0.0 0.0833333 0.005
0.0 0.125 0.005
0.0 0.166667 0.005
0.0 0.208333 0.005
0.0 0.25 0.005
0.0 0.291667 0.005
0.0 0.333333 0.005
0.0 0.375 0.005
0.0 0.416667 0.005
0.0 0.458333 0.005
0.0 0.5 0.005
0.0 0.541667 0.005
0.0 0.583333 0.005
0.0 0.625 0.005
0.0 0.666667 0.005
0.0 0.708333 0.005
0.0 0.75 0.005
0.0 0.791667 0.005
0.0 0.833333 0.005
0.0 0.875 0.005
0.0 0.916667 0.005
0.0 0.958333 0.005
0.0 1.0 0.005
0.0409575 0.0 0.005
0.0409401 0.0416667 0.005
0.0409227 0.0833333 0.005
0.0409054 0.125 0.005
0.040888 0.166667 0.005
0.0408706 0.208333 0.005
0.0408532 0.25 0.005
0.0408359 0.291667 0.005
0.0408185 0.333333 0.005
0.0408011 0.375 0.005
0.0407838 0.416667 0.005
0.0407664 0.458333 0.005
0.040749 0.5 0.005
0.0407316 0.541667 0.005
0.0407143 0.583333 0.005
0.0406969 0.625 0.005
0.0406795 0.666667 0.005
0.0406621 0.708333 0.005
0.0406448 0.75 0.005
0.0406274 0.791667 0.005
0.04061 0.833333 0.005
0.0405927 0.875 0.005
0.0405753 0.916667 0.005
0.0405579 0.958333 0.005
0.0405405 1.0 0.005
0.0819149 0.0 0.005
0.0818802 0.0416667 0.005
0.0818455 0.0833333 0.005
0.0818107 0.125 0.005
0.081776 0.166667 0.005
0.0817412 0.208333 0.005
0.0817065 0.25 0.005
0.0816717 0.291667 0.005
0.081637 0.333333 0.005
0.0816022 0.375 0.005
0.0815675 0.416667 0.005
0.0815328 0.458333 0.005
0.081498 0.5 0.005
0.0814633 0.541667 0.005
0.0814285 0.583333 0.005
0.0813938 0.625 0.005
0.081359 0.666667 0.005
0.0813243 0.708333 0.005
0.0812895 0.75 0.005
0.0812548 0.791667 0.005
0.0812201 0.833333 0.005
0.0811853 0.875 0.005
0.0811506 0.916667 0.005
0.0811158 0.958333 0.005
0.0810811 1.0 0.005
0.122872 0.0 0.005
0.12282 0.0416667 0.005
0.122768 0.0833333 0.005
0.122716 0.125 0.005
0.122664 0.166667 0.005
0.122612 0.208333 0.005
0.12256 0.25 0.005
0.122508 0.291667 0.005
0.122455 0.333333 0.005
0.122403 0.375 0.005
0.122351 0.416667 0.005
0.122299 0.458333 0.005
0.122247 0.5 0.005
0.122195 0.541667 0.005
0.122143 0.583333 0.005
0.122091 0.625 0.005
0.122039 0.666667 0.005
0.121986 0.708333 0.005
0.121934 0.75 0.005
0.121882 0.791667 0.005
0.12183 0.833333 0.005
0.121778 0.875 0.005
0.121726 0.916667 0.005
0.121674 0.958333 0.005
0.121622 1.0 0.005
0.16383 0.0 0.005
0.16376 0.0416667 0.005
0.163691 0.0833333 0.005
0.163621 0.125 0.005
0.163552 0.166667 0.005
0.163482 0.208333 0.005
0.163413 0.25 0.005
0.163343 0.291667 0.005
0.163274 0.333333 0.005
0.163204 0.375 0.005
0.163135 0.416667 0.005
0.163066 0.458333 0.005
0.162996 0.5 0.005
0.162927 0.541667 0.005
0.162857 0.583333 0.005
0.162788 0.625 0.005
0.162718 0.666667 0.005
0.162649 0.708333 0.005
0.162579 0.75 0.005
0.16251 0.791667 0.005
0.16244 0.833333 0.005
0.162371 0.875 0.005
0.162301 0.916667 0.005
0.162232 0.958333 0.005
0.162162 1.0 0.005
0.204787 0.0 0.005
0.2047 0.0416667 0.005
0.204614 0.0833333 0.005
0.204527 0.125 0.005
0.20444 0.166667 0.005
0.204353 0.208333 0.005
0.204266 0.25 0.005
0.204179 0.291667 0.005
0.204092 0.333333 0.005
0.204006 0.375 0.005
0.203919 0.416667 0.005
0.203832 0.458333 0.005
0.203745 0.5 0.005
0.203658 0.541667 0.005
0.203571 0.583333 0.005
0.203484 0.625 0.005
0.203398 0.666667 0.005
0.203311 0.708333 0.005
0.203224 0.75 0.005
0.203137 0.791667 0.005
0.20305 0.833333 0.005
0.202963 0.875 0.005
0.202876 0.916667 0.005
0.20279 0.958333 0.005
0.202703 1.0 0.005
0.245745 0.0 0.005
0.245641 0.0416667 0.005
0.245536 0.0833333 0.005
0.245432 0.125 0.005
0.245328 0.166667 0.005
0.245224 0.208333 0.005
0.245119 0.25 0.005
0.245015 0.291667 0.005
0.244911 0.333333 0.005
0.244807 0.375 0.005
0.244703 0.416667 0.005
0.244598 0.458333 0.005
0.244494 0.5 0.005
0.24439 0.541667 0.005
0.244286 0.583333 0.005
0.244181 0.625 0.005
0.244077 0.666667 0.005
0.243973 0.708333 0.005
0.243869 0.75 0.005
0.243764 0.791667 0.005
0.24366 0.833333 0.005
0.243556 0.875 0.005
0.243452 0.916667 0.005
0.243347 0.958333 0.005
0.243243 1.0 0.005
0.286702 0.0 0.005
0.286581 0.0416667 0.005
0.286459 0.0833333 0.005
0.286337 0.125 0.005
0.286216 0.166667 0.005
0.286094 0.208333 0.005
0.285973 0.25 0.005
0.285851 0.291667 0.005
0.285729 0.333333 0.005
0.285608 0.375 0.005
0.285486 0.416667 0.005
0.285365 0.458333 0.005
0.285243 0.5 0.005
0.285121 0.541667 0.005
0.285 0.583333 0.005
0.284878 0.625 0.005
0.284757 0.666667 0.005
0.284635 0.708333 0.005
0.284513 0.75 0.005
0.284392 0.791667 0.005
0.28427 0.833333 0.005
0.284149 0.875 0.005
0.284027 0.916667 0.005
0.283905 0.958333 0.005
0.283784 1.0 0.005
0.32766 0.0 0.005
0.327521 0.0416667 0.005
0.327382 0.0833333 0.005
0.327243 0.125 0.005
0.327104 0.166667 0.005
0.326965 0.208333 0.005
0.326826 0.25 0.005
0.326687 0.291667 0.005
0.326548 0.333333 0.005
0.326409 0.375 0.005
0.32627 0.416667 0.005
0.326131 0.458333 0.005
0.325992 0.5 0.005
0.325853 0.541667 0.005
0.325714 0.583333 0.005
0.325575 0.625 0.005
0.325436 0.666667 0.005
0.325297 0.708333 0.005
0.325158 0.75 0.005
0.325019 0.791667 0.005
0.32488 0.833333 0.005
0.324741 0.875 0.005
0.324602 0.916667 0.005
0.324463 0.958333 0.005
0.324324 1.0 0.005
0.368617 0.0 0.005
0.368461 0.0416667 0.005
0.368305 0.0833333 0.005
0.368148 0.125 0.005
0.367992 0.166667 0.005
0.367835 0.208333 0.005
0.367679 0.25 0.005
0.367523 0.291667 0.005
0.367366 0.333333 0.005
0.36721 0.375 0.005
0.367054 0.416667 0.005
0.366897 0.458333 0.005
0.366741 0.5 0.005
0.366585 0.541667 0.005
0.366428 0.583333 0.005
0.366272 0.625 0.005
0.366116 0.666667 0.005
0.365959 0.708333 0.005
0.365803 0.75 0.005
0.365647 0.791667 0.005
0.36549 0.833333 0.005
0.365334 0.875 0.005
0.365178 0.916667 0.005
0.365021 0.958333 0.005
0.364865 1.0 0.005
0.409575 0.0 0.005
0.409401 0.0416667 0.005
0.409227 0.0833333 0.005
0.409054 0.125 0.005
0.40888 0.166667 0.005
0.408706 0.208333 0.005
0.408532 0.25 0.005
0.408359 0.291667 0.005
0.408185 0.333333 0.005
0.408011 0.375 0.005
0.407838 0.416667 0.005
0.407664 0.458333 0.005
0.40749 0.5 0.005
0.407316 0.541667 0.005
0.407143 0.583333 0.005
0.406969 0.625 0.005
0.406795 0.666667 0.005
0.406621 0.708333 0.005
0.406448 0.75 0.005
0.406274 0.791667 0.005
0.4061 0.833333 0.005
0.405927 0.875 0.005
0.405753 0.916667 0.005
0.405579 0.958333 0.005
0.405405 1.0 0.005
0.450532 0.0 0.005
0.450341 0.0416667 0.005
0.45015 0.0833333 0.005
0.449959 0.125 0.005
0.449768 0.166667 0.005
0.449577 0.208333 0.005
0.449386 0.25 0.005
0.449195 0.291667 0.005
0.449003 0.333333 0.005
0.448812 0.375 0.005
0.448621 0.416667 0.005
0.44843 0.458333 0.005
0.448239 0.5 0.005
0.448048 0.541667 0.005
0.447857 0.583333 0.005
0.447666 0.625 0.005
0.447475 0.666667 0.005
0.447284 0.708333 0.005
0.447093 0.75 0.005
0.446901 0.791667 0.005
0.44671 0.833333 0.005
0.446519 0.875 0.005
0.446328 0.916667 0.005
0.446137 0.958333 0.005
0.445946 1.0 0.005
0.49149 0.0 0.005
0.491281 0.0416667 0.005
0.491073 0.0833333 0.005
0.490864 0.125 0.005
0.490656 0.166667 0.005
0.490447 0.208333 0.005
0.490239 0.25 0.005
0.49003 0.291667 0.005
0.489822 0.333333 0.005
0.489613 0.375 0.005
0.489405 0.416667 0.005
0.489197 0.458333 0.005
0.488988 0.5 0.005
0.48878 0.541667 0.005
0.488571 0.583333 0.005
0.488363 0.625 0.005
0.488154 0.666667 0.005
0.487946 0.708333 0.005
0.487737 0.75 0.005
0.487529 0.791667 0.005
0.48732 0.833333 0.005
0.487112 0.875 0.005
0.486903 0.916667 0.005
0.486695 0.958333 0.005
0.486486 1.0 0.005
0.531954 0.00563435 0.005
0.531749 0.0470663 0.005
0.531544 0.0884982 0.005
0.531338 0.12993 0.005
0.531133 0.171362 0.005
0.530928 0.212794 0.005
0.530722 0.254226 0.005
0.530517 0.295658 0.005
0.530312 0.33709 0.005
0.530107 0.378521 0.005
0.529901 0.419953 0.005
0.529696 0.461385 0.005
0.529491 0.502817 0.005
0.529285 0.544249 0.005
0.52908 0.585681 0.005
0.528875 0.627113 0.005
0.528669 0.668545 0.005
0.528464 0.709977 0.005
0.528259 0.751409 0.005
0.528054 0.79284 0.005
0.527848 0.834272 0.005
0.527643 0.875704 0.005
0.527438 0.917136 0.005
0.527232 0.958568 0.005
0.527027 1.0 0.005
0.572289 0.0127465 0.005
0.572093 0.0538821 0.005
0.571896 0.0950177 0.005
0.571699 0.136153 0.005
0.571502 0.177289 0.005
0.571306 0.218424 0.005
0.571109 0.25956 0.005
0.570912 0.300695 0.005
0.570715 0.341831 0.005
0.570519 0.382967 0.005
0.570322 0.424102 0.005
0.570125 0.465238 0.005
0.569928 0.506373 0.005
0.569732 0.547509 0.005
0.569535 0.588644 0.005
0.569338 0.62978 0.005
0.569142 0.670916 0.005
0.568945 0.712051 0.005
0.568748 0.753187 0.005
0.568551 0.794322 0.005
0.568355 0.835458 0.005
0.568158 0.876593 0.005
0.567961 0.917729 0.005
0.567764 0.958864 0.005
0.567568 1.0 0.005
0.612625 0.0198587 0.005
0.612436 0.0606979 0.005
0.612248 0.101537 0.005
0.61206 0.142376 0.005
0.611872 0.183216 0.005
0.611684 0.224055 0.005
0.611496 0.264894 0.005
0.611307 0.305733 0.005
0.611119 0.346572 0.005
0.610931 0.387412 0.005
0.610743 0.428251 0.005
0.610555 0.46909 0.005
0.610366 0.509929 0.005
0.610178 0.550769 0.005
0.60999 0.591608 0.005
0.609802 0.632447 0.005
0.609614 0.673286 0.005
0.609425 0.714125 0.005
0.609237 0.754965 0.005
0.609049 0.795804 0.005
0.608861 0.836643 0.005
0.608673 0.877482 0.005
0.608484 0.918322 0.005
0.608296 0.959161 0.005
0.608108 1.0 0.005
0.65296 0.0269708 0.005
0.65278 0.0675137 0.005
0.652601 0.108057 0.005
0.652421 0.148599 0.005
0.652241 0.189142 0.005
0.652062 0.229685 0.005
0.651882 0.270228 0.005
0.651702 0.310771 0.005
0.651523 0.351314 0.005
0.651343 0.391857 0.005
0.651164 0.4324 0.005
0.650984 0.472943 0.005
0.650804 0.513485 0.005
0.650625 0.554028 0.005
0.650445 0.594571 0.005
0.650265 0.635114 0.005
0.650086 0.675657 0.005
0.649906 0.7162 0.005
0.649726 0.756743 0.005
0.649547 0.797286 0.005
0.649367 0.837828 0.005
0.649188 0.878371 0.005
0.649008 0.918914 0.005
0.648828 0.959457 0.005
0.648649 1.0 0.005
0.693295 0.034083 0.005
0.693124 0.0743295 0.005
0.692953 0.114576 0.005
0.692782 0.154823 0.005
0.692611 0.195069 0.005
0.69244 0.235316 0.005
0.692269 0.275562 0.005
0.692098 0.315809 0.005
0.691926 0.356055 0.005
0.691755 0.396302 0.005
0.691584 0.436548 0.005
[...]
CELL_DATA 888
SCALARS P float 1
LOOKUP_TABLE default
100145.18828657357
100144.84079428675
100204.552099735
100142.44636645124
100204.424780085
100290.93096800988
100138.33506058255
100201.10011576007
100291.202831006
100416.99923099142
100132.81831307616
100195.17344633806
100286.3778463791
100417.95122382612
100601.67872262491
100126.20930011301
100187.17224737038
100277.49388281234
100410.6413027299
100603.7638066491
100873.58486501845
100118.81691626775
100177.59829327706
100265.4666427258
100396.8833586296
100592.21783860815
100877.47773991253
101276.89675711855
100110.93263370791
100166.92689097558
100251.14143896052
100378.29697963934
100570.29161805079
100858.43796247894
101283.32420714553
101882.19573550066
100102.81840215733
100155.5930385724
100235.2888526054
100356.34470570431
100540.91421506669
100822.52465484904
101250.34687351222
101890.73283690361
102809.06193659984
100094.69883810087
100143.97827176811
100218.58720117735
100332.30952577863
100506.66107414347
100775.17335277688
101189.84054196444
101830.12859909983
102812.5316767814
104280.59062054171
100086.75806308059
100132.40289756637
100201.60907472608
100307.27059034145
100469.69013331234
100720.9657256704
101112.13075489183
101725.0058061564
102692.8874203908
104241.25215723121
106778.27567467868
100079.1403049143
100121.12436422353
100184.81812545154
100282.09820400117
100431.72503269448
100663.52671407799
101025.37758261366
101595.28176907849
102503.98223061845
103984.93451139457
106524.31362430297
111559.8994913522
100071.9532579936
100110.34055443607
100168.57364048905
100257.46235019626
100394.0765673784
100605.5699837132
100935.57081413748
101455.2706158885
102284.03202622298
103633.37025355313
105928.05810855086
110299.2333271321
122712.798238599
100065.27289684468
100100.19616541792
100153.14128812021
100233.85683656232
100357.69762680419
100549.02329193239
100846.84138371618
101314.46161294785
102056.93193756755
103255.8815289468
105253.65274142537
108824.96905748181
116458.52941023596
133054.19766374634
100059.14897745496
100090.79073896159
100138.7069400803
100211.62624907264
100323.2422301199
100495.1814842999
100761.8775194215
101178.74789447458
101836.46357659152
102887.60271339107
104603.20732511982
107519.14224604887
112896.9833324463
123340.04467199296
141165.2635037431
100053.61064235486
100082.18705810983
100125.39114405836
100190.99436616646
100291.13013154904
100444.85649577025
100682.30716398558
101051.52240633953
101629.96701653405
102544.78065661478
104011.20200446772
106414.56971886783
110500.37407047053
117735.62382995612
129926.16361738772
147750.63037621303
100048.67165029349
100074.41955458559
100113.26313208656
100172.09136535716
100261.6030061305
100398.50198388085
100609.0074479626
100934.51770303851
101440.87309478445
102233.83331410949
103485.8865008294
105485.08314631345
108724.11875702172
114109.25353277371
122862.08665294985
135928.6003691734
153186.48453332504
100044.33515854589
100067.50171149698
100102.35373705809
100154.97658126106
100234.76971815582
100356.31802435718
100542.34683683765
100828.40411091685
101270.32147821406
101956.17465963207
103025.56394443056
104700.7249678881
107333.6255689242
111535.62576550516
118140.19595522164
127950.04204345093
141298.0804248085
157702.62529623194
100040.59807140553
100061.43285613337
100092.66646959116
100139.65939978969
100210.64704015042
100318.329264462
100482.3539355468
100733.1852848499
101118.14147807691
101710.73552011016
102624.98157141104
104036.46672959914
106210.26354020512
109588.78218425905
114767.86624708516
122374.56475624871
132823.7752940661
146057.6691189599
161457.66686728765
100037.45489640697
100056.20419268396
100084.18700635518
100126.11501460942
100189.18853808711
100284.44594312043
100428.8464525042
100648.47561735591
100983.44690705424
101495.29598228987
102277.8617896709
103472.34543074213
105285.61594752602
108054.284142828
112226.12962367346
118293.11788390261
126645.82147948771
137392.8515405832
150250.23385306352
164571.115669656
100034.90159092189
100051.80423524597
100076.89193200762
100114.29891768549
100170.31055294845
100254.50811126726
100381.51781414925
100573.67150012482
100865.00435243598
101307.17842701914
101977.92949524299
102992.31971005669
104515.7229003217
106813.18157779437
110234.94666820958
115177.07159561197
121988.48987062866
130836.9544141468
141615.39239428283
153923.155335556
167137.87882523015
100032.93992740684
100048.22431868187
100070.75607735783
100104.15751133118
100153.9088057788
100228.31939783963
100339.99839278824
100508.06668023192
100761.44207189273
101143.61689268383
101719.34984159445
102583.34343172626
103870.06027747449
105792.90031193754
108633.76006210908
112719.47172981554
118360.54972796144
125748.86846838743
134869.13197371594
145476.43782859686
157123.18574552526
169236.61082226707
100031.58335130123
100045.46528306745
100065.76048215062
100095.6394669099
100139.87593223197
100205.67193667276
100303.89704973117
100450.93162115672
100671.37816825171
101001.9548873613
101496.86769160519
102234.6699328317
103326.01975692227
104945.34271649699
107323.87892067916
110735.9659569055
115459.06310631876
121695.517473357
129490.00727839947
138691.58448454656
148976.57915399745
159895.09809889778
170934.50053968327
100030.86690506662
100043.54712999976
100061.9024102096
100088.70615436319
100128.11393606494
100186.36584891175
100272.83196649831
100401.55533602879
100593.4993305805
100879.74340990352
101305.8466788895
101937.37722405481
102866.2185203192
104236.46902462772
106240.04461788038
109109.75523450246
113093.67182060749
118396.72406064876
125107.4010961518
133146.85333987378
142273.0996257406
152126.3946484641
162281.44583260192
172290.14567633535
100042.52586137944
100059.21015838489
100083.34631028367
100118.55004782462
100170.2263114017
100246.45402615058
100359.2820289286
100526.59952236855
100774.77631305579
101142.24356879068
101684.02200451997
102476.93386477235
103640.88143342713
105336.4695760243
107762.36863857135
111139.75825351708
115670.15781560178
121473.4652177037
128531.55134851375
136670.88052114897
145595.98181447695
154941.46815986617
164322.03761558956
173352.197426147
100057.7690199318
100079.59750562035
100111.15562676157
100157.12333526067
100224.46742785271
100323.53243822188
100469.60592734686
100685.11353731994
101002.57914261121
101468.37065830172
102147.0840079046
103139.03827745508
104579.36770880719
106638.08490935001
109511.53630016165
113392.84712225673
118422.39739331893
124632.38050813407
131913.58375994556
140026.84780831993
148652.7523497073
157441.18051517973
166053.47913879657
174165.76626797137
100077.58392732593
100105.97743171343
100146.99773549571
100206.6512017738
100293.82435273964
100421.59813924861
100609.08214877245
100883.88050278742
101285.21837525295
101867.6556664896
102715.50119871079
103942.88105696421
105695.50294849934
108146.8091760755
111478.0128595648
115840.21587223279
121304.68718213704
127821.36936800838
135209.53256072995
143190.55976836974
151443.18336606212
159646.32638536568
167510.71706634614
174765.24837659943
100103.18995648262
100139.90315258727
100192.89545125376
100269.80108229067
100381.82340942319
100545.27470444815
100783.64286945238
101130.2181388282
101631.26545115773
102357.88743719232
103406.74908823145
104902.83254834225
106998.60433847006
109861.17647869245
113644.5343235152
118447.65641528676
124271.34215295246
130994.1019467745
138384.47741028253
146146.5520826249
153972.48898391786
161579.0426362793
168722.55096657915
175185.0215733364
100136.07853007324
100183.2560905972
100251.27256156041
100349.72552711393
100492.5572901777
100699.79542294989
100999.77355537479
101431.85387005644
102056.17073621649
102954.8111992503
104235.02681884394
106030.26445108083
108492.61301030303
111772.92358487015
115987.59514143302
121178.09970283981
127278.70438433418
134110.88520881184
141411.89669946916
148886.2329727028
156249.6583534568
163260.53371656692
169719.15054216588
175450.57981345506
100178.05445685043
100238.29021939855
100324.9970753177
100450.09673520685
100630.69196861453
100890.95205179452
101264.45913594519
101802.21586618618
102574.05151287577
103672.02811819458
105212.60299982259
107332.64065692724
110175.87040608322
113867.52452394614
118479.05696403317
123993.40207700277
130286.56437552754
137138.4079856025
144272.29428374447
151405.56269088763
158285.77186766564
164711.35732691744
170523.6983400163
175589.4863739495
100231.27915124413
100307.67380718782
100417.41846192483
100575.1254461824
100801.44622228987
101125.08935165436
101589.41244092555
102253.91928589405
103197.65416309843
104521.99361256837
106349.06865507114
108813.00197749719
112041.16943301601
116125.23943616141
121087.708473406
126856.07433248385
133258.77495587998
140049.49182261128
146952.12509304035
153705.76540054823
160093.4042714255
165951.88242872877
171160.46808199273
175617.6136721467
100298.31181851302
100394.52921501685
100532.39631715487
100729.56488803336
101010.61652269143
101412.46111241331
101985.88173790915
102798.77028672773
103939.20049267678
105515.42813739054
107650.64890375339
110469.67521982772
114076.00750271301
118522.10371037446
123780.72195179826
129730.2446155491
136163.70966934555
142822.9691228299
149442.84368784548
155790.26439511203
161685.46354650654
167001.2262250686
171648.84977249135
175559.50103189616
100382.15091736446
100502.46878240116
100674.32364300158
100918.75917362323
101267.23610111016
101763.12422766433
102464.74129195182
103448.47751840256
104809.81932379057
106660.56988338243
109119.74660967749
112296.18440650556
116263.29643199068
121031.07588293214
126524.95456479758
132582.79379694222
138974.43127958203
145441.4632361242
151739.21995855315
157665.65469528837
163075.99497894594
167876.88768192593
172008.3445758345
175427.84881385713
100486.27250526841
100635.62895395985
100848.18585508401
101150.75088467797
101580.34563433756
102187.05520485119
103037.03545126958
104214.17125691705
105818.97169218637
107962.7180934432
110754.66333654746
114281.527947021
118582.02889207438
123623.14698609505
129287.96761518516
135383.14469235687
141668.32976696323
147893.75199097148
153840.01277284525
159338.6287712097
164277.97921087034
168594.66862659258
172255.73778621902
175243.50121041533
100614.67256726114
100798.74062081633
101061.24949088963
101433.71858204996
101959.09249722613
102694.57724018113
103713.58860832694
105105.84970204576
106973.86586865476
109423.78988941213
112549.4725938148
116410.43037488915
121008.1385564077
126268.31648390349
132038.76500787865
138105.21249816348
144226.10372415461
150169.86797888484
155745.28898543597
160816.5319615381
165303.98886333
169170.67829626478
172408.81142458835
175027.55838103726
100771.94103690766
100998.50612760382
101320.99778150395
101776.08276548113
102413.09210797717
103296.0640630105
104504.59002448076
106131.96161924537
108279.01472106385
111041.93171478099
114494.10437981474
118663.98949222975
123515.20805849327
128936.48623949214
134747.70937654798
140724.78887862392
146633.18744322125
152263.9101522538
157456.81826554585
162107.5741513011
166165.34161015533
169619.0709214288
172485.52765075516
174817.78534448682
100964.47031679327
101241.90827400894
101635.24995410106
102186.80092876275
102952.17428782397
104001.57066648762
105419.10474319627
107298.82504487797
109735.79488128789
112811.52434920413
116574.47649157255
121020.09612139525
126075.50249693419
131597.71034302592
137388.15403239237
143220.64319163348
148875.86100824986
154171.3091878541
158976.76091256365
163218.6049309001
166872.9134280632
169953.4844973239
172509.569939183
174661.02533277855
101198.94960998575
101536.31323678125
102012.4006937138
102675.16847862523
103586.12167785436
104820.44036110789
106464.62422983484
108610.16971539501
111342.14093428846
114722.91375183528
118772.94079150585
123453.73816290685
128659.8714843547
134223.2730253256
139934.83458287176
145574.73791889794
150943.91744912267
155888.0617853877
160306.68685340596
164155.00793676908
167434.37838606347
170184.99867600674
172504.77491169158
101482.49185484201
101889.67013755259
102461.24384060508
103250.57604134422
104324.26710422382
105760.86757577468
107646.61487918273
110066.75997688659
113092.28169237942
116762.66517441675
121068.47758573678
125938.8139804709
131239.40635815525
136785.19779553975
142364.5175981075
147770.1990034416
152827.02582049966
157409.180795933
161445.89001857687
164918.1743808506
167850.33089164423
170315.29935933597
101822.78609818415
102310.38257906155
102990.77951573546
103922.21167241974
105175.12578539753
106829.40733904605
108967.94005563195
111666.03864901031
114976.68724626106
118913.71086794203
123437.26526279218
128446.55215639826
133784.54399160098
139256.567725526
144654.92985286462
149790.66950140393
154514.42800770927
158728.7769240478
162388.79771872383
165498.24589225734
168100.524600578
102227.98746891004
102807.10774585143
103609.9487124349
104698.67415953675
106145.97769644846
108030.51135684107
110428.55825677875
113401.74310018835
116981.64358794376
121155.02133514333
125852.34537339506
130946.94019553158
136265.6433250288
141610.24536155994
146783.8647612491
151619.12154495512
155992.49856266944
159832.67416879442
163116.00512427176
165854.90989916323
102706.55347687117
103388.53486628123
104327.29662625135
105587.59741921269
107242.34679577462
109366.0963452061
112025.07917402832
115263.85985276048
119090.12045582739
123462.66144807712
128285.06515761132
133409.32636158122
138652.3958400106
143818.86430576668
148728.02965735726
153234.46353194534
157239.92289697408
160691.11165627648
163567.4182569663
103266.9948551943
104063.094518528
105150.60475248528
106595.22018788895
108467.53388041198
110834.9907092629
113750.36548133132
117237.96389558786
121280.57967472074
125809.45035142156
130703.86956890688
135800.8742600603
140912.97705393183
145853.45368767862
150459.67211988574
154607.60917483692
158215.59638906928
161227.06291629584
103917.63055545569
104838.58752943308
106086.4970394281
107725.81924250988
109822.15733182794
112432.56376989456
115593.09218679726
119305.80946308335
123527.39602512828
128163.6974208994
133074.67116783664
138086.1923898069
143012.6276336737
147679.38757502672
151941.31952900434
155687.396862337
158826.632262567
104666.24409946192
105721.79315586443
107139.87997667318
108981.23350218486
111303.39040278718
114149.97550755354
117537.60454315192
121444.25957118503
125801.04728831348
130491.59843960378
135359.4170186585
140225.85157717895
144910.4779326837
149250.96416030198
153110.65564763034
156363.93681109644
105519.66043551001
106718.01595342158
108313.49717602102
110360.35666443154
112904.99365633403
115974.25889105976
119563.29779778294
123625.26768420366
128067.12334551285
132752.7381321228
137514.61524173166
142173.04345301838
146553.27085518287
150496.08359749807
153844.10376623768
106483.32227956272
107830.5168729495
109607.35410444596
111858.42175389867
114615.87017268984
117887.10947111539
121644.23236642758
125815.27256085344
130285.25844731732
134901.74388082002
139489.6808920741
143867.5896918329
147859.3670605522
151277.44196077794
107560.77552609405
109059.98189683122
111017.82242290085
113466.19445582245
116419.89326711392
119864.62484227851
123747.94656906949
127974.10451468555
132408.03847614193
136883.2053875865
141217.22154112373
145220.09685587152
148679.40225199543
108753.00942807611
110403.79008494463
112537.48320179606
115169.88239591285
118295.3411906782
121876.24535967642
125835.0481711259
130053.34263776659
134376.74925221773
138625.453162665
142600.36673663592
146069.44610873668
110057.94204682732
111855.34026151033
114153.6289479891
116949.0986587326
120213.40839609083
123883.65793531005
127857.1350821336
131992.72857929088
136116.06901086023
140024.5531145185
143469.88000980785
111469.49283339578
113403.24417090806
115847.86463109043
118777.07595685241
122137.23266318598
125838.74948077365
129752.92392654928
133713.84532716536
137517.6512411887
140905.0561139119
112976.89910752412
115030.23194331396
117594.74093166324
120618.33898294858
124019.62066062875
127680.10828771298
131442.15974361228
135104.26717463674
138399.75790700116
114563.5549220869
116712.0333631079
119360.28781137936
122426.82225449443
125799.37059596999
129326.81593687697
132810.47523331206
135980.1688056345
116205.8385947601
118415.81563842503
121099.55857754279
124142.63188091056
127395.88708670232
130663.63642185493
133672.93550178752
117871.71156512824
120098.00476785621
122754.17135227553
125685.69301545562
128694.7812659081
131506.58431823357
119518.37568936861
121700.94902792355
124244.90986658206
126942.51433671886
129513.74440596892
121088.954630811
123147.14361292604
125460.52149898936
127735.21886020736
122506.8723695908
124327.18451684537
126226.67011792568
123663.94674068487
125070.40037416878
124392.50346725262
SCALARS T float 1
LOOKUP_TABLE default
300.1253180836666
300.1249985838661
300.17703516517065
300.1229061514282
300.1768810784251
300.2527127754718
300.11932652205707
300.17394908207183
300.2528500898041
300.3639735167226
300.1145307632474
300.16875564557574
300.2485409480148
300.3645826891763
300.5284932347792
300.10879192891804
300.16176174646137
300.2406893624797
300.35794655116183
300.5298282510617
300.7735706721365
300.10237921316906
300.1534071916566
300.2301002646803
300.34565464822725
300.51913346632006
300.77590698742586
301.14227136418583
300.095546214874
300.14410846685377
300.2175194490797
300.3291415781521
300.49928129131166
300.75785559813374
301.1455365976064
301.7046209483894
300.0885203264951
300.13424591911354
300.20362648125746
300.3097078659035
300.4728905998673
300.72482672364987
301.11349235136987
301.7068271824888
302.579854526639
300.081495996399
300.1241520734943
300.1890177842716
300.28849320162124
300.44227215823787
300.68173226278384
301.0568716104283
301.6466122519926
302.57101098429354
303.98585801723175
300.0746321084088
300.11410498307504
300.17419451767955
300.26645214919546
300.4093579463186
300.63272267205747
300.98510855830017
301.5465002829452
302.45044254486737
303.92470098999553
306.36541207682205
300.0680526572024
300.10432709348464
300.1595601613441
300.24434956909323
300.37568172838695
300.5810688595638
300.90566452995137
301.4248685742349
302.2678496128137
303.66669076441286
306.087052970945
310.7569851019453
300.06184981134317
300.09498844499916
300.1454252131913
300.22276934955346
300.34239916341176
300.529197964656
300.82398161283004
301.2949065116627
302.0587163018093
303.32423864230645
305.5006352954301
309.5836279994002
319.9953997040373
300.0560882097536
300.0862125354966
300.1320173296624
300.2021373409449
300.31034001795535
300.47881112643574
300.7437649033371
301.1652728016524
301.8451555826959
302.9617524468833
304.8470175969588
308.20414043490285
314.99477988579497
328.035832965636
300.0508098210368
300.0780835531518
300.1194940518916
300.1827466704665
300.2800643539622
300.43102918556434
300.6673764520403
301.0412408597088
301.6397365741338
302.6117697154095
304.2211574625728
306.9668745642767
311.89845742935535
320.77477250017563
334.09020839250667
300.0460388591577
300.0706538544022
300.1079559312287
300.16478399202106
300.2519230281281
300.386534971374
300.5962006371295
300.92574325612867
301.4489370858502
302.288990912807
303.6554669096775
305.9137603349574
309.7137595672347
316.1549721575706
326.08383967789894
338.8713610263203
300.041786344822
300.06395138064204
300.09745908158584
300.1483542674259
300.22610978583396
300.34569083133476
300.53093922156654
300.82017709179405
301.2755629949696
301.99878512026055
303.1573153353097
305.0272708494455
308.054165394356
312.97306762060526
320.51778285232945
330.754037105472
342.73488880165024
300.03805425701273
300.0579861447223
300.0880266337323
300.1335012773555
300.20270278356077
300.30863604200925
300.4718402065598
300.7249760586657
301.12030460463575
301.7418053824426
302.72432959077713
304.28190753552457
306.74103157308235
310.62818424465195
316.5255790690432
324.706796752741
334.8064515194444
345.8894541438761
300.03483929202616
300.05275614399346
300.0796584713294
300.12022620417025