# vtk DataFile Version 2.0
JuliaCFD
ASCII
DATASET UNSTRUCTURED_GRID

POINTS 1900 float
0.0 0.0 0.005
0.0 0.0416667 0.005
0.0 0.0833333 0.005
0.0 0.125 0.005
0.0 0.166667 0.005
0.0 0.208333 0.005
0.0 0.25 0.005
0.0 0.291667 0.005
0.0 0.333333 0.005
0.0 0.375 0.005
0.0 0.416667 0.005
0.0 0.458333 0.005
0.0 0.5 0.005
0.0 0.541667 0.005
0.0 0.583333 0.005
0.0 0.625 0.005
0.0 0.666667 0.005
0.0 0.708333 0.005
0.0 0.75 0.005
0.0 0.791667 0.005
0.0 0.833333 0.005
0.0 0.875 0.005
0.0 0.916667 0.005
0.0 0.958333 0.005
0.0 1.0 0.005
0.0409575 0.0 0.005
0.0409401 0.0416667 0.005
0.0409227 0.0833333 0.005
0.0409054 0.125 0.005
0.040888 0.166667 0.005
0.0408706 0.208333 0.005
0.0408532 0.25 0.005
0.0408359 0.291667 0.005
0.0408185 0.333333 0.005
0.0408011 0.375 0.005
0.0407838 0.416667 0.005
0.0407664 0.458333 0.005
0.040749 0.5 0.005
0.0407316 0.541667 0.005
0.0407143 0.583333 0.005
0.0406969 0.625 0.005
0.0406795 0.666667 0.005
0.0406621 0.708333 0.005
0.0406448 0.75 0.005
0.0406274 0.791667 0.005
0.04061 0.833333 0.005
0.0405927 0.875 0.005
0.0405753 0.916667 0.005
0.0405579 0.958333 0.005
0.0405405 1.0 0.005
0.0819149 0.0 0.005
0.0818802 0.0416667 0.005
0.0818455 0.0833333 0.005
0.0818107 0.125 0.005
0.081776 0.166667 0.005
0.0817412 0.208333 0.005
0.0817065 0.25 0.005
0.0816717 0.291667 0.005
0.081637 0.333333 0.005
0.0816022 0.375 0.005
0.0815675 0.416667 0.005
0.0815328 0.458333 0.005
0.081498 0.5 0.005
0.0814633 0.541667 0.005
0.0814285 0.583333 0.005
0.0813938 0.625 0.005
0.081359 0.666667 0.005
0.0813243 0.708333 0.005
0.0812895 0.75 0.005
0.0812548 0.791667 0.005
0.0812201 0.833333 0.005
0.0811853 0.875 0.005
0.0811506 0.916667 0.005
0.0811158 0.958333 0.005
0.0810811 1.0 0.005
0.122872 0.0 0.005
0.12282 0.0416667 0.005
0.122768 0.0833333 0.005
0.122716 0.125 0.005
0.122664 0.166667 0.005
0.122612 0.208333 0.005
0.12256 0.25 0.005
0.122508 0.291667 0.005
0.122455 0.333333 0.005
0.122403 0.375 0.005
0.122351 0.416667 0.005
0.122299 0.458333 0.005
0.122247 0.5 0.005
0.122195 0.541667 0.005
0.122143 0.583333 0.005
0.122091 0.625 0.005
0.122039 0.666667 0.005
0.121986 0.708333 0.005
0.121934 0.75 0.005
0.121882 0.791667 0.005
0.12183 0.833333 0.005
0.121778 0.875 0.005
0.121726 0.916667 0.005
0.121674 0.958333 0.005
0.121622 1.0 0.005
0.16383 0.0 0.005
0.16376 0.0416667 0.005
0.163691 0.0833333 0.005
0.163621 0.125 0.005
0.163552 0.166667 0.005
0.163482 0.208333 0.005
0.163413 0.25 0.005
0.163343 0.291667 0.005
0.163274 0.333333 0.005
0.163204 0.375 0.005
0.163135 0.416667 0.005
0.163066 0.458333 0.005
0.162996 0.5 0.005
0.162927 0.541667 0.005
0.162857 0.583333 0.005
0.162788 0.625 0.005
0.162718 0.666667 0.005
0.162649 0.708333 0.005
0.162579 0.75 0.005
0.16251 0.791667 0.005
0.16244 0.833333 0.005
0.162371 0.875 0.005
0.162301 0.916667 0.005
0.162232 0.958333 0.005
0.162162 1.0 0.005
0.204787 0.0 0.005
0.2047 0.0416667 0.005
0.204614 0.0833333 0.005
0.204527 0.125 0.005
0.20444 0.166667 0.005
0.204353 0.208333 0.005
0.204266 0.25 0.005
0.204179 0.291667 0.005
0.204092 0.333333 0.005
0.204006 0.375 0.005
0.203919 0.416667 0.005
0.203832 0.458333 0.005
0.203745 0.5 0.005
0.203658 0.541667 0.005
0.203571 0.583333 0.005
0.203484 0.625 0.005
0.203398 0.666667 0.005
0.203311 0.708333 0.005
0.203224 0.75 0.005
0.203137 0.791667 0.005
0.20305 0.833333 0.005
0.202963 0.875 0.005
0.202876 0.916667 0.005
0.20279 0.958333 0.005
0.202703 1.0 0.005
0.245745 0.0 0.005
0.245641 0.0416667 0.005
0.245536 0.0833333 0.005
0.245432 0.125 0.005
0.245328 0.166667 0.005
0.245224 0.208333 0.005
0.245119 0.25 0.005
0.245015 0.291667 0.005
0.244911 0.333333 0.005
0.244807 0.375 0.005
0.244703 0.416667 0.005
0.244598 0.458333 0.005
0.244494 0.5 0.005
0.24439 0.541667 0.005
0.244286 0.583333 0.005
0.244181 0.625 0.005
0.244077 0.666667 0.005
0.243973 0.708333 0.005
0.243869 0.75 0.005
0.243764 0.791667 0.005
0.24366 0.833333 0.005
0.243556 0.875 0.005
0.243452 0.916667 0.005
0.243347 0.958333 0.005
0.243243 1.0 0.005
0.286702 0.0 0.005
0.286581 0.0416667 0.005
0.286459 0.0833333 0.005
0.286337 0.125 0.005
0.286216 0.166667 0.005
0.286094 0.208333 0.005
0.285973 0.25 0.005
0.285851 0.291667 0.005
0.285729 0.333333 0.005
0.285608 0.375 0.005
0.285486 0.416667 0.005
0.285365 0.458333 0.005
0.285243 0.5 0.005
0.285121 0.541667 0.005
0.285 0.583333 0.005
0.284878 0.625 0.005
0.284757 0.666667 0.005
0.284635 0.708333 0.005
0.284513 0.75 0.005
0.284392 0.791667 0.005
0.28427 0.833333 0.005
0.284149 0.875 0.005
0.284027 0.916667 0.005
0.283905 0.958333 0.005
0.283784 1.0 0.005
0.32766 0.0 0.005
0.327521 0.0416667 0.005
0.327382 0.0833333 0.005
0.327243 0.125 0.005
0.327104 0.166667 0.005
0.326965 0.208333 0.005
0.326826 0.25 0.005
0.326687 0.291667 0.005
0.326548 0.333333 0.005
0.326409 0.375 0.005
0.32627 0.416667 0.005
0.326131 0.458333 0.005
0.325992 0.5 0.005
0.325853 0.541667 0.005
0.325714 0.583333 0.005
0.325575 0.625 0.005
0.325436 0.666667 0.005
0.325297 0.708333 0.005
0.325158 0.75 0.005
0.325019 0.791667 0.005
0.32488 0.833333 0.005
0.324741 0.875 0.005
0.324602 0.916667 0.005
0.324463 0.958333 0.005
0.324324 1.0 0.005
0.368617 0.0 0.005
0.368461 0.0416667 0.005
0.368305 0.0833333 0.005
0.368148 0.125 0.005
0.367992 0.166667 0.005
0.367835 0.208333 0.005
0.367679 0.25 0.005
0.367523 0.291667 0.005
0.367366 0.333333 0.005
0.36721 0.375 0.005
0.367054 0.416667 0.005
0.366897 0.458333 0.005
0.366741 0.5 0.005
0.366585 0.541667 0.005
0.366428 0.583333 0.005
0.366272 0.625 0.005
0.366116 0.666667 0.005
0.365959 0.708333 0.005
0.365803 0.75 0.005
0.365647 0.791667 0.005
0.36549 0.833333 0.005
0.365334 0.875 0.005
0.365178 0.916667 0.005
0.365021 0.958333 0.005
0.364865 1.0 0.005
0.409575 0.0 0.005
0.409401 0.0416667 0.005
0.409227 0.0833333 0.005
0.409054 0.125 0.005
0.40888 0.166667 0.005
0.408706 0.208333 0.005
0.408532 0.25 0.005
0.408359 0.291667 0.005
0.408185 0.333333 0.005
0.408011 0.375 0.005
0.407838 0.416667 0.005
0.407664 0.458333 0.005
0.40749 0.5 0.005
0.407316 0.541667 0.005
0.407143 0.583333 0.005
0.406969 0.625 0.005
0.406795 0.666667 0.005
0.406621 0.708333 0.005
0.406448 0.75 0.005
0.406274 0.791667 0.005
0.4061 0.833333 0.005
0.405927 0.875 0.005
0.405753 0.916667 0.005
0.405579 0.958333 0.005
0.405405 1.0 0.005
0.450532 0.0 0.005
0.450341 0.0416667 0.005
0.45015 0.0833333 0.005
0.449959 0.125 0.005
0.449768 0.166667 0.005
0.449577 0.208333 0.005
0.449386 0.25 0.005
0.449195 0.291667 0.005
0.449003 0.333333 0.005
0.448812 0.375 0.005
0.448621 0.416667 0.005
0.44843 0.458333 0.005
0.448239 0.5 0.005
0.448048 0.541667 0.005
0.447857 0.583333 0.005
0.447666 0.625 0.005
0.447475 0.666667 0.005
0.447284 0.708333 0.005
0.447093 0.75 0.005
0.446901 0.791667 0.005
0.44671 0.833333 0.005
0.446519 0.875 0.005
0.446328 0.916667 0.005
0.446137 0.958333 0.005
0.445946 1.0 0.005
0.49149 0.0 0.005
0.491281 0.0416667 0.005
0.491073 0.0833333 0.005
0.490864 0.125 0.005
0.490656 0.166667 0.005
0.490447 0.208333 0.005
0.490239 0.25 0.005
0.49003 0.291667 0.005
0.489822 0.333333 0.005
0.489613 0.375 0.005
0.489405 0.416667 0.005
0.489197 0.458333 0.005
0.488988 0.5 0.005
0.48878 0.541667 0.005
0.488571 0.583333 0.005
0.488363 0.625 0.005
0.488154 0.666667 0.005
0.487946 0.708333 0.005
0.487737 0.75 0.005
0.487529 0.791667 0.005
0.48732 0.833333 0.005
0.487112 0.875 0.005
0.486903 0.916667 0.005
0.486695 0.958333 0.005
0.486486 1.0 0.005
0.531954 0.00563435 0.005
0.531749 0.0470663 0.005
0.531544 0.0884982 0.005
0.531338 0.12993 0.005
0.531133 0.171362 0.005
0.530928 0.212794 0.005
0.530722 0.254226 0.005
0.530517 0.295658 0.005
0.530312 0.33709 0.005
0.530107 0.378521 0.005
0.529901 0.419953 0.005
0.529696 0.461385 0.005
0.529491 0.502817 0.005
0.529285 0.544249 0.005
0.52908 0.585681 0.005
0.528875 0.627113 0.005
0.528669 0.668545 0.005
0.528464 0.709977 0.005
0.528259 0.751409 0.005
0.528054 0.79284 0.005
0.527848 0.834272 0.005
0.527643 0.875704 0.005
0.527438 0.917136 0.005
0.527232 0.958568 0.005
0.527027 1.0 0.005
0.572289 0.0127465 0.005
0.572093 0.0538821 0.005
0.571896 0.0950177 0.005
0.571699 0.136153 0.005
0.571502 0.177289 0.005
0.571306 0.218424 0.005
0.571109 0.25956 0.005
0.570912 0.300695 0.005
0.570715 0.341831 0.005
0.570519 0.382967 0.005
0.570322 0.424102 0.005
0.570125 0.465238 0.005
0.569928 0.506373 0.005
0.569732 0.547509 0.005
0.569535 0.588644 0.005
0.569338 0.62978 0.005
0.569142 0.670916 0.005
0.568945 0.712051 0.005
0.568748 0.753187 0.005
0.568551 0.794322 0.005
0.568355 0.835458 0.005
0.568158 0.876593 0.005
0.567961 0.917729 0.005
0.567764 0.958864 0.005
0.567568 1.0 0.005
0.612625 0.0198587 0.005
0.612436 0.0606979 0.005
0.612248 0.101537 0.005
0.61206 0.142376 0.005
0.611872 0.183216 0.005
0.611684 0.224055 0.005
0.611496 0.264894 0.005
0.611307 0.305733 0.005
0.611119 0.346572 0.005
0.610931 0.387412 0.005
0.610743 0.428251 0.005
0.610555 0.46909 0.005
0.610366 0.509929 0.005
0.610178 0.550769 0.005
0.60999 0.591608 0.005
0.609802 0.632447 0.005
0.609614 0.673286 0.005
0.609425 0.714125 0.005
0.609237 0.754965 0.005
0.609049 0.795804 0.005
0.608861 0.836643 0.005
0.608673 0.877482 0.005
0.608484 0.918322 0.005
0.608296 0.959161 0.005
0.608108 1.0 0.005
0.65296 0.0269708 0.005
0.65278 0.0675137 0.005
0.652601 0.108057 0.005
0.652421 0.148599 0.005
0.652241 0.189142 0.005
0.652062 0.229685 0.005
0.651882 0.270228 0.005
0.651702 0.310771 0.005
0.651523 0.351314 0.005
0.651343 0.391857 0.005
0.651164 0.4324 0.005
0.650984 0.472943 0.005
0.650804 0.513485 0.005
0.650625 0.554028 0.005
0.650445 0.594571 0.005
0.650265 0.635114 0.005
0.650086 0.675657 0.005
0.649906 0.7162 0.005
0.649726 0.756743 0.005
0.649547 0.797286 0.005
0.649367 0.837828 0.005
0.649188 0.878371 0.005
0.649008 0.918914 0.005
0.648828 0.959457 0.005
0.648649 1.0 0.005
0.693295 0.034083 0.005
0.693124 0.0743295 0.005
0.692953 0.114576 0.005
0.692782 0.154823 0.005
0.692611 0.195069 0.005
0.69244 0.235316 0.005
0.692269 0.275562 0.005
0.692098 0.315809 0.005
0.691926 0.356055 0.005
0.691755 0.396302 0.005
0.691584 0.436548 0.005
[...]
CELL_DATA 888
SCALARS P float 1
LOOKUP_TABLE default
100147.42124996507
100147.07216603922
100207.61744965892
100144.66663606017
100207.48967806838
100295.08609931095
100140.53602960146
100204.15025380942
100295.35961435722
100422.57880114911
100134.99286874766
100198.19685293833
100290.51489417352
100423.53595617744
100609.11773408318
100128.35137099357
100190.15876083047
100281.59362932533
100416.19932244846
100611.21368961329
100883.44842929834
100120.9214787481
100180.53937528373
100269.51446849621
100402.38883156548
100599.63098268636
100887.36143983308
101289.91822940926
100112.99571658265
100169.81556309035
100255.12529183082
100383.72880221656
100577.62991241248
100868.2701785229
101296.38080775378
101899.32507582875
100104.83706999531
100158.42384357989
100239.1990634258
100361.68585286375
100548.14714942327
100832.24891135914
101263.32963477896
101907.92121865758
102831.52716103666
100096.67115072181
100146.74722226079
100222.4163544911
100337.54666151914
100513.76465864512
100784.74555817615
101202.66540688154
101847.2077725589
102835.09192985065
104309.97894052335
100088.68301575996
100135.10740023603
100205.35187477809
100312.39375805095
100476.64612468667
100730.35229003549
101124.73424708172
101741.8504327412
102715.27901370563
104270.7800061378
106816.66059534787
100081.01775529684
100123.763123045
100188.47124588623
100287.10053939398
100438.52029086213
100672.70302816581
101037.71324629828
101611.80143528177
102526.01949701496
104014.18570417166
106562.84836136909
111610.13462274591
100073.78384648175
100112.91346090448
100172.1355566457
100262.33977854782
100400.70245353681
100614.51911520901
100947.60618719229
101471.40249905328
102305.58921994166
103662.07714066049
105966.10307298921
110349.35869435623
122779.59341070573
100067.05796535718
100102.70418232659
100156.61210000512
100238.60777887647
100364.14945536837
100557.7348415014
100858.55543131173
101330.16434600558
102077.92724966817
103283.87743677145
105290.85047950545
108874.15525763627
116523.42839886784
133139.7829621168
100060.89049058246
100093.23578449884
100142.08819623217
100216.25133467035
100329.51874665276
100503.65057854059
100773.25853016276
101193.99676925251
101856.84711378535
102914.78769609804
104639.3570062006
107567.00601590777
112960.01161316325
123422.4723188
141271.23009609903
100055.31111397722
100084.57189415711
100128.68567095889
100195.49615733195
100297.23304592703
100453.08292809741
100693.35103507007
101066.30569599623
101649.71226196869
102571.09951643975
104046.19392666829
106460.91313545617
110561.38804553114
117815.30163378589
130028.61210206611
147878.93842265228
100050.33407756027
100076.74768442361
100116.47487479524
100176.4741069465
100267.53657732627
100406.4894674782
100619.71627963825
100948.83384862372
101459.97088769868
102259.2617770415
103519.66771959802
105529.80647382991
108783.00026372322
114186.19142152744
122961.2369172263
136053.58602474755
153339.34528228443
100045.96296490698
100069.77728746927
100105.48761537319
100159.24596990418
100240.54037483684
100364.07356079669
100552.72780946546
100842.25958781608
101288.77575823554
101980.7104617965
103058.11902848879
104743.78901420401
107390.30991197983
111609.75968472753
118236.00975007507
128071.53421658814
141448.23631942924
157882.44901246164
100042.19506041927
100063.6606007941
100095.72825098105
100143.82238528779
100216.26306196919
100325.8626049614
100492.41836778724
100746.59292511785
101135.96618624518
101734.39242761025
102656.32108437245
104077.8728308499
106264.73495757006
109660.06745696263
114860.24410244521
122492.33338227127
132970.57257367118
146235.75733116156
161667.03903583426
100039.0252176352
100058.38933486285
100087.18319688103
100130.17962339825
100194.65977260283
100291.76913758738
100438.60905064277
100661.4533283963
101000.66367866588
101518.09967350862
102308.0148940074
103512.12340811455
105337.89774492684
108122.71706249336
112314.99508316824
118406.93658137837
126788.75454576177
137568.03628162312
150459.15180719647
164812.77738253344
100036.44972225944
100053.95246407758
100079.82969260306
100118.27411325964
100175.64819131524
100261.63512991271
100390.99606158842
100586.24123970761
100881.6408101075
101329.16353832086
102006.93888935135
103030.5199255121
104565.86800754677
106878.79956772366
110320.27419627471
115286.7682431625
122127.13143889094
131008.39192886755
141822.15854664805
154165.92130962622
167414.70296622146
100034.47068187711
100050.3417632111
100073.64316598534
100108.05308092029
100159.12518709282
100235.26582655705
100349.21205872683
100520.2536441181
100777.5305016413
101164.82483160362
101747.26823886212
102620.03121748107
103918.14452264449
105855.77524602713
108715.57717140869
112824.95017447327
118494.57137926194
125915.88069092935
135072.5318624841
145718.08053242642
157402.916992034
169551.5711396825
100033.10192358201
100047.55853178698
100068.60523532871
100099.4659559988
100144.98441305054
100212.45474281214
100312.86779707955
100462.76363333313
100686.95450083149
101022.43221529579
101523.75523173535
102269.9215729899
103372.13560706154
105005.57376959383
107402.2604530039
110837.20705195439
115588.24621558975
121857.5717908863
129689.08042110929
138930.50269377677
149256.46776358737
160214.97964721738
171290.6312538096
100032.3789937741
100045.62331960429
100064.71378903688
100092.47485744898
100133.12881296553
100193.00322056371
100281.58306138327
100413.06235190458
100608.60238638057
100899.54064822978
101331.76902246376
101971.2770377794
102910.47064441323
104294.1767105343
106315.10340651848
109206.80849066115
113217.90547510763
118553.43076567784
125301.37496918949
133381.78980665025
142551.16500383065
152447.94461043365
162644.68892210518
172690.4890487086
100044.59289693076
100061.99790375665
100087.06936084921
100123.48657516368
100176.73758001994
100255.01015362257
100370.49580793046
100541.27044035119
100793.94700874727
101167.27044882685
101716.66013034368
102519.43610223716
103696.20152721721
105408.34834851096
107855.34071520201
111259.0295224871
115821.26824903935
121661.74070164852
128761.47257852477
136945.55841237336
145916.85171025194
155308.0930907964
164731.8214677702
173799.72695910188
100060.5440110313
100083.28812773182
100116.03016708004
100163.52903078095
100232.85463885138
100334.48634599462
100483.88777847488
100703.71362699983
101026.78337029854
101499.84137560746
102187.95645643359
103192.11799235723
104648.23175357212
106727.12746252953
109625.91551577175
113538.24259791501
118604.54458074781
124856.44911454007
132183.5724846263
140345.17305973422
149020.06287315913
157856.23306268986
166512.87951586643
174663.30821794612
100081.25698148643
100110.80784633578
100153.31983603686
100214.89701846169
100304.5533239972
100435.53573938804
100627.16955893129
100907.3372368629
101315.61900528826
101907.02275180841
102766.4954932778
104008.91183991106
105780.80219818452
108256.43474031876
111617.69063399312
116015.96786791476
121522.25837082257
128085.57995043963
135523.74740211145
143556.4085639764
151860.48314914876
160113.02051362535
168022.61196247512
175315.3440177501
100107.99640220775
100146.16566098269
100201.02925971308
100280.34184035307
100395.46334853023
100562.90917814107
100806.4292001888
101159.64820859088
101669.25472018134
102406.95673462826
103470.1396106834
104984.6006557612
107103.66796649966
109995.2303867642
113813.7727992089
118658.27399033467
124528.88951375711
131302.86165863147
138747.0462937027
146563.70044140387
154443.163554438
162100.3593906924
169289.50576380425
175789.82231387714
100142.30860752112
100191.30997004322
100261.66419330968
100363.11652117672
100509.80051605623
100721.99025504099
101028.33438153486
101468.59499891267
102103.47889931926
103015.76230490587
104313.49462362709
106130.99841830142
108621.21639958634
111935.66090640986
116190.98381228924
121428.3065198295
127580.87244360616
134468.58252167076
141826.83751078905
149358.26297721564
156776.8254570014
163839.0990124108
170343.27446627352
176111.6425581415
100186.06477579322
100248.5753601062
100338.19081576972
100467.01291224481
100652.37631744785
100918.74673510774
101300.08336062565
101847.9291936218
102632.76943959911
103747.43924389294
105309.2705633448
107456.02888839103
110332.22927610386
114063.57369167595
118721.45155637494
124288.05676223218
130638.00252034157
137549.32295998675
144743.41790929888
151935.75964633178
158872.15675013774
165349.30206890067
171206.4773445367
176307.61706351192
100241.5061897961
100320.72661161552
100434.0754990722
100596.38325391116
100828.58016404197
101159.72977648223
101633.69911046377
102310.613719502
103270.26131871431
104614.87978302952
106467.52535652526
108963.19585174217
112229.91414686567
116359.54736955231
121374.15092102079
127200.07703595165
133664.03631146133
140517.68825851698
147482.9201045848
154296.98534762097
160741.1952906567
166650.6655960797
171902.56168553728
176392.57784169205
100311.28764805585
100411.00100490495
100553.31613452948
100756.14686912372
101044.40883168568
101455.49116247994
102040.76484443265
102868.83231024229
104028.60634958032
105629.27335511116
107794.96319104919
110651.27390473316
114302.13409326358
118799.85639459526
124116.34031814967
130128.42409637495
136627.1336235005
143352.17057345118
150036.34522689084
156444.7924334492
162396.1332134936
167761.42811952904
172449.8419633977
176389.77815751338
100398.52143687251
100523.14687230706
100700.46822001884
100951.84294491203
101309.18253274226
101816.41091418709
102532.52161568764
103534.71512402606
104919.39964997924
106799.34609255538
109294.45971575296
112514.19552133836
116532.09512195112
121357.59900736708
126914.84334656685
133039.77783486576
139500.00627824652
146034.90778858852
152397.8358746243
158385.00988655686
163850.0859927084
168697.96221714895
172866.46378043917
176310.25587820736
100506.81832546921
100661.4605628133
100880.70800788811
101191.79180694277
101632.25463049502
102252.82176275713
103120.42569276091
104319.8536547147
105952.59469962941
108130.88867962194
110964.76121681034
114541.30380767597
118898.98438046998
124003.78018145474
129737.04776263786
135903.21202042303
142259.53721430906
148554.0207870951
154565.34591412995
160123.3519568055
165114.8555759607
169474.66747057543
173167.51493095732
176172.83337062452
100640.33278474309
100830.8607258404
101101.57226650899
101484.47542984861
102023.11870136307
102775.44853894896
103815.75492201501
105234.73747216158
107135.90303904256
109626.29193958282
112800.33122657376
116717.57355582654
121378.80378480697
126708.26322385222
132551.6209624731
138692.12116209423
144885.73462482498
150898.6897267294
156537.90853944927
161665.9355665427
166201.57136628567
170105.91406464673
173368.69619206878
175996.1058845697
100803.84073688845
101038.31426619862
101370.83977596751
101838.65129860413
102491.78196513264
103395.11015316751
104629.1872530632
106288.32592164353
108474.33221493287
111284.1298603034
114791.40302121431
119024.22912521401
123945.04843818473
129440.6393462965
135328.4008666743
141381.58023443795
147363.13641894123
153061.93743253706
158316.02295557724
163019.46710486483
167119.783959299
170603.732632608
173485.4687942298
175814.98946785918
101003.9961307488
101291.093879781
101696.659116564
102263.65944722568
103048.50988442532
104122.34420106602
105570.29943687872
107487.4463412891
109969.71811777914
113099.1355620229
116924.07744675988
121439.1281416801
126569.71042475579
132170.44990161547
138040.00884580705
143949.420825656
149676.89091779367
155037.84708765597
159900.2711787053
164189.01036213274
167878.17271168885
170979.2284548728
173538.65019278068
175673.34182311408
101247.774474903
101596.8892016126
102087.79966146161
102769.22248449894
103703.56116345891
104967.00429144934
106647.1011447772
108836.3116281557
111620.38852511316
115061.89233856655
119180.73314614613
123937.03251488341
129223.15127667472
134868.24133330787
140660.21006417123
146376.42359904127
151815.39128374826
156820.7857188862
161290.39047318816
165177.6854192203
168481.85976985132
171240.61954191327
173549.2039701665
101542.60903003416
101964.01756088002
102553.47417577439
103365.19874836753
104466.77464495387
105937.80753066935
107865.5601854449
110336.1126254358
113420.8595261547
117159.04988394884
121540.17981903451
126491.392354162
131875.73117229703
137505.04221585052
143164.53876239987
148644.25144685796
153766.60877745977
158403.81804759146
162483.39592158067
165984.2984849841
168928.5618186955
171386.71434493482
101896.55320644149
102401.29538190516
103103.14313054747
104061.27732596162
105347.18809022004
107041.8208789616
109228.99220177553
111984.62415997627
115361.7430798053
119373.43088498486
123978.1922452377
129072.7223069827
134496.88189577786
140052.66206491523
145529.19845890047
150734.78031339846
155517.766515625
159778.82278718604
163471.05644594855
166596.0828481101
169195.11047608894
102318.17083917707
102917.83378580122
103746.24230199268
104866.57686189593
106352.60033273345
108283.96836225626
110737.7234762297
113775.77562317529
117429.27183414808
121683.6521651395
126467.13107133155
131650.00589974705
137055.65397002205
142482.37956493668
147730.13960904532
152628.88421489895
157052.90411767646
160928.8616661908
164231.01088840782
166969.73021211926
102816.36990277146
103522.81076082455
104491.83289884265
105789.25172118863
107489.02083801282
109666.56366040054
112388.60174295948
115699.55841219817
119606.12384716547
124065.14572377769
128977.35669031479
134191.26663289775
139520.1048797256
144764.91286587238
149741.88812914738
154303.02057016297
158347.94839725466
161821.15369102222
164700.08211611133
103400.14580373121
104225.16916158576
105348.21589483185
106836.03510685761
108760.16772153637
111188.70952596825
114174.54530716082
117741.31009374555
121870.17464637003
126489.7695517571
131475.9809509759
136661.988742826
141856.42342612782
146869.0227513335
151534.14302423105
155725.3467435556
159358.65759720196
162375.47608223694
104078.32629886293
105033.22681603124
106322.51326056372
108011.63521713436
110166.9646529165
112845.87726168468
116084.04921551785
119882.25657813692
124194.87393599379
128924.50225572457
133927.2067031966
139024.72815130258
144027.48874412774
148757.43960971513
153066.57731221907
156841.4195272662
159988.81500495365
104859.21040776809
105954.26076273528
107420.07154721036
109318.2171825673
111706.72264541447
114629.09603378751
118100.98341531424
122098.38210943194
126549.39363736028
131333.8181803489
136290.87006979602
141237.60571203302
145989.6833651306
150381.44371425547
154273.51847428535
157537.87593398098
105750.11951891452
106994.02114314602
108643.97642881823
110754.84507751463
113373.1202192103
116524.9790984261
120203.91357842745
124360.360129802
128897.59266801029
133675.1421932445
138520.94851574188
143250.9561182708
147686.5949144748
151665.54667406823
155027.7170836683
106756.94246230496
108156.11859211419
109994.4245354432
112316.70269534201
115154.68429680725
118514.44126313693
122365.66108005299
126632.9100049551
131196.91952600217
135900.50356856897
140563.89476132457
145001.31378237836
149033.0779430997
152468.52577503072
107883.57948006612
109441.44332236575
111467.76438972604
113994.22137114307
117034.55719751825
120572.38361818544
124552.06128110505
128873.6602372904
133397.29934640357
137951.42119769356
142348.89772996568
146395.61001512015
149875.62816509185
109131.22888761229
110847.37129473528
113056.27980016441
115772.92735586417
118989.8677170386
122666.57633059204
126721.52115972932
131031.48099196017
135436.85288270027
139752.6750273037
143775.19285914453
147268.38224500028
110497.81735012897
112367.02651829933
114746.6142350266
117631.31990132562
120990.17225887334
124756.51328543131
128822.89810002063
133042.87219985173
137236.57924063696
141196.24888848746
144669.037064971
111977.00006304066
113988.39945868294
116519.30108857121
119541.03663349774
122996.43733352562
126791.32348789176
130791.60076973584
134825.61464841207
138683.87059766107
142101.95678919397
113557.40870796482
115693.17853108907
118347.32835039857
121464.45313301151
124958.70890711041
128706.23999721001
132543.46872207426
136262.85143422996
139592.0053388836
115221.413540471
117455.5602096736
120194.60692838013
123352.75138280186
126812.39547325257
130416.35158230408
133959.55107563498
137165.5325895145
116943.87574629778
119240.61680436697
122013.4522381382
125142.63862385777
128472.84587205238
131801.70484774408
134849.44040989355
118690.68059105783
121002.0585694867
123742.08370249614
126749.93290232182
129820.84284877314
132672.62561359117
120416.33017235233
122678.83880627103
125297.15047739403
128056.22569039301
130668.2046434127
122060.56067416052
124189.31186127331
126562.42601434569
128877.63028774624
123542.65509632477
125419.06350469754
127357.45235847365
124749.40752363719
126191.23418320675
125506.92951756137
SCALARS T float 1
LOOKUP_TABLE default
300.127246690254
300.1269255793694
300.1796893349134
300.1248231733782
300.17953437801657
300.25632249426167
300.1212263512378
300.1765888545045
300.2564602757097
300.36884188258944
300.11640714505415
300.17137127315357
300.2521325279886
300.36945360795653
300.53502092923827
300.1106395436534
300.1643442299656
300.2442466158845
300.3627913036645
300.5363615604136
300.78228884343946
300.10419368374164
300.1559490061498
300.2336101345359
300.3504498591126
300.52562895519054
300.7846350686143
301.1538851566707
300.0973241080606
300.1466035099411
300.2209712453344
300.3338682165684
300.50570403774407
300.7665273175044
301.1571658726127
301.720064852223
300.0902591329309
300.1366894710727
300.20701172331724
300.31435073299576
300.47921280660614
300.733389630606
301.12503481189674
301.72229256762523
302.60035685928233
300.0831940885692
300.1265407408514
300.1923300721397
300.2930405849982
300.4484722916756
300.6901458007388
301.0682482225891
301.6619393235648
302.59153725436755
304.01299928930854
300.0762886818341
300.11643661897335
300.1774293892503
300.27089551046004
300.4154200180292
300.64095661337916
300.9962605526767
301.56157027485676
302.4707415744213
303.95185247902515
306.4011281921288
300.06966766077363
300.106600699958
300.16271493302816
300.24868323629545
300.38159462824933
300.5891018221932
300.9165502420111
301.4395977812431
302.28774578416585
303.69346188202564
306.1227181529602
310.8033748570995
300.06342387309604
300.09720406566055
300.14849880719726
300.2269901944703
300.3481560098494
300.53701602548483
300.8345733998729
301.3092393528941
302.07809441934717
303.350380018698
305.5356722447055
309.6298216145558
320.05398801564735
300.057622562452
300.0883711449357
300.1350100973614
300.2062444713646
300.3159375637722
300.48640656650394
300.7540463603196
301.1791754049804
301.8639452654524
302.987114391242
304.8810975222928
308.24938212716347
315.0531476645265
328.107152589597
300.05230623102364
300.0801869490597
300.1224076030523
300.1867411382317
300.28550243382324
300.4383993896437
300.6773400804298
301.0546958130872
301.65789968715177
302.6362695279584
304.2540995810743
307.01076375653105
311.9556959501924
320.84642679984205
334.17492951155305
300.04749956099283
300.0727045556245
300.1107929730216
300.1686685222864
300.257204078011
300.3936815066604
300.6058459560513
300.9387455279849
301.46645849011276
302.31259064634236
303.6871809094179
305.95608286641203
309.76933092464463
316.22577028409836
326.1698018566235
338.9704462294558
300.0432139831637
300.0659525353779
300.1002232717183
300.15213301959193
300.23123842956386
300.3526186722539
300.54027125483066
300.8327309365671
301.2924439422894
302.0214770175284
303.187768282107
305.06792407134606
308.10776622742463
313.0421781856101
320.60355126966147
330.8554360496963
342.84947884322474
300.0394518370171
300.05994144892776
300.09072245070814
300.1371796310484
300.20768546866907
300.31535293845315
300.4808683118944
300.7370927213052
301.13655809696274
301.7636022727168
302.7535259812193
304.3208599344775
306.7925074453244
310.6950914968976
316.6099936292049
324.8089163459526
334.9245490630834
346.0208281545298
300.0362101395838
300.0546697726981
300.08229110205286
300.1238105798029