# vtk DataFile Version 2.0
JuliaCFD
ASCII
DATASET UNSTRUCTURED_GRID

POINTS 1900 float
0.0 0.0 0.005
0.0 0.0416667 0.005
0.0 0.0833333 0.005
0.0 0.125 0.005
0.0 0.166667 0.005
0.0 0.208333 0.005
0.0 0.25 0.005
0.0 0.291667 0.005
0.0 0.333333 0.005
0.0 0.375 0.005
0.0 0.416667 0.005
0.0 0.458333 0.005
0.0 0.5 0.005
0.0 0.541667 0.005
0.0 0.583333 0.005
0.0 0.625 0.005
0.0 0.666667 0.005
0.0 0.708333 0.005
0.0 0.75 0.005
0.0 0.791667 0.005
0.0 0.833333 0.005
0.0 0.875 0.005
0.0 0.916667 0.005
0.0 0.958333 0.005
0.0 1.0 0.005
0.0409575 0.0 0.005
0.0409401 0.0416667 0.005
0.0409227 0.0833333 0.005
0.0409054 0.125 0.005
0.040888 0.166667 0.005
0.0408706 0.208333 0.005
0.0408532 0.25 0.005
0.0408359 0.291667 0.005
0.0408185 0.333333 0.005
0.0408011 0.375 0.005
0.0407838 0.416667 0.005
0.0407664 0.458333 0.005
0.040749 0.5 0.005
0.0407316 0.541667 0.005
0.0407143 0.583333 0.005
0.0406969 0.625 0.005
0.0406795 0.666667 0.005
0.0406621 0.708333 0.005
0.0406448 0.75 0.005
0.0406274 0.791667 0.005
0.04061 0.833333 0.005
0.0405927 0.875 0.005
0.0405753 0.916667 0.005
0.0405579 0.958333 0.005
0.0405405 1.0 0.005
0.0819149 0.0 0.005
0.0818802 0.0416667 0.005
0.0818455 0.0833333 0.005
0.0818107 0.125 0.005
0.081776 0.166667 0.005
0.0817412 0.208333 0.005
0.0817065 0.25 0.005
0.0816717 0.291667 0.005
0.081637 0.333333 0.005
0.0816022 0.375 0.005
0.0815675 0.416667 0.005
0.0815328 0.458333 0.005
0.081498 0.5 0.005
0.0814633 0.541667 0.005
0.0814285 0.583333 0.005
0.0813938 0.625 0.005
0.081359 0.666667 0.005
0.0813243 0.708333 0.005
0.0812895 0.75 0.005
0.0812548 0.791667 0.005
0.0812201 0.833333 0.005
0.0811853 0.875 0.005
0.0811506 0.916667 0.005
0.0811158 0.958333 0.005
0.0810811 1.0 0.005
0.122872 0.0 0.005
0.12282 0.0416667 0.005
0.122768 0.0833333 0.005
0.122716 0.125 0.005
0.122664 0.166667 0.005
0.122612 0.208333 0.005
0.12256 0.25 0.005
0.122508 0.291667 0.005
0.122455 0.333333 0.005
0.122403 0.375 0.005
0.122351 0.416667 0.005
0.122299 0.458333 0.005
0.122247 0.5 0.005
0.122195 0.541667 0.005
0.122143 0.583333 0.005
0.122091 0.625 0.005
0.122039 0.666667 0.005
0.121986 0.708333 0.005
0.121934 0.75 0.005
0.121882 0.791667 0.005
0.12183 0.833333 0.005
0.121778 0.875 0.005
0.121726 0.916667 0.005
0.121674 0.958333 0.005
0.121622 1.0 0.005
0.16383 0.0 0.005
0.16376 0.0416667 0.005
0.163691 0.0833333 0.005
0.163621 0.125 0.005
0.163552 0.166667 0.005
0.163482 0.208333 0.005
0.163413 0.25 0.005
0.163343 0.291667 0.005
0.163274 0.333333 0.005
0.163204 0.375 0.005
0.163135 0.416667 0.005
0.163066 0.458333 0.005
0.162996 0.5 0.005
0.162927 0.541667 0.005
0.162857 0.583333 0.005
0.162788 0.625 0.005
0.162718 0.666667 0.005
0.162649 0.708333 0.005
0.162579 0.75 0.005
0.16251 0.791667 0.005
0.16244 0.833333 0.005
0.162371 0.875 0.005
0.162301 0.916667 0.005
0.162232 0.958333 0.005
0.162162 1.0 0.005
0.204787 0.0 0.005
0.2047 0.0416667 0.005
0.204614 0.0833333 0.005
0.204527 0.125 0.005
0.20444 0.166667 0.005
0.204353 0.208333 0.005
0.204266 0.25 0.005
0.204179 0.291667 0.005
0.204092 0.333333 0.005
0.204006 0.375 0.005
0.203919 0.416667 0.005
0.203832 0.458333 0.005
0.203745 0.5 0.005
0.203658 0.541667 0.005
0.203571 0.583333 0.005
0.203484 0.625 0.005
0.203398 0.666667 0.005
0.203311 0.708333 0.005
0.203224 0.75 0.005
0.203137 0.791667 0.005
0.20305 0.833333 0.005
0.202963 0.875 0.005
0.202876 0.916667 0.005
0.20279 0.958333 0.005
0.202703 1.0 0.005
0.245745 0.0 0.005
0.245641 0.0416667 0.005
0.245536 0.0833333 0.005
0.245432 0.125 0.005
0.245328 0.166667 0.005
0.245224 0.208333 0.005
0.245119 0.25 0.005
0.245015 0.291667 0.005
0.244911 0.333333 0.005
0.244807 0.375 0.005
0.244703 0.416667 0.005
0.244598 0.458333 0.005
0.244494 0.5 0.005
0.24439 0.541667 0.005
0.244286 0.583333 0.005
0.244181 0.625 0.005
0.244077 0.666667 0.005
0.243973 0.708333 0.005
0.243869 0.75 0.005
0.243764 0.791667 0.005
0.24366 0.833333 0.005
0.243556 0.875 0.005
0.243452 0.916667 0.005
0.243347 0.958333 0.005
0.243243 1.0 0.005
0.286702 0.0 0.005
0.286581 0.0416667 0.005
0.286459 0.0833333 0.005
0.286337 0.125 0.005
0.286216 0.166667 0.005
0.286094 0.208333 0.005
0.285973 0.25 0.005
0.285851 0.291667 0.005
0.285729 0.333333 0.005
0.285608 0.375 0.005
0.285486 0.416667 0.005
0.285365 0.458333 0.005
0.285243 0.5 0.005
0.285121 0.541667 0.005
0.285 0.583333 0.005
0.284878 0.625 0.005
0.284757 0.666667 0.005
0.284635 0.708333 0.005
0.284513 0.75 0.005
0.284392 0.791667 0.005
0.28427 0.833333 0.005
0.284149 0.875 0.005
0.284027 0.916667 0.005
0.283905 0.958333 0.005
0.283784 1.0 0.005
0.32766 0.0 0.005
0.327521 0.0416667 0.005
0.327382 0.0833333 0.005
0.327243 0.125 0.005
0.327104 0.166667 0.005
0.326965 0.208333 0.005
0.326826 0.25 0.005
0.326687 0.291667 0.005
0.326548 0.333333 0.005
0.326409 0.375 0.005
0.32627 0.416667 0.005
0.326131 0.458333 0.005
0.325992 0.5 0.005
0.325853 0.541667 0.005
0.325714 0.583333 0.005
0.325575 0.625 0.005
0.325436 0.666667 0.005
0.325297 0.708333 0.005
0.325158 0.75 0.005
0.325019 0.791667 0.005
0.32488 0.833333 0.005
0.324741 0.875 0.005
0.324602 0.916667 0.005
0.324463 0.958333 0.005
0.324324 1.0 0.005
0.368617 0.0 0.005
0.368461 0.0416667 0.005
0.368305 0.0833333 0.005
0.368148 0.125 0.005
0.367992 0.166667 0.005
0.367835 0.208333 0.005
0.367679 0.25 0.005
0.367523 0.291667 0.005
0.367366 0.333333 0.005
0.36721 0.375 0.005
0.367054 0.416667 0.005
0.366897 0.458333 0.005
0.366741 0.5 0.005
0.366585 0.541667 0.005
0.366428 0.583333 0.005
0.366272 0.625 0.005
0.366116 0.666667 0.005
0.365959 0.708333 0.005
0.365803 0.75 0.005
0.365647 0.791667 0.005
0.36549 0.833333 0.005
0.365334 0.875 0.005
0.365178 0.916667 0.005
0.365021 0.958333 0.005
0.364865 1.0 0.005
0.409575 0.0 0.005
0.409401 0.0416667 0.005
0.409227 0.0833333 0.005
0.409054 0.125 0.005
0.40888 0.166667 0.005
0.408706 0.208333 0.005
0.408532 0.25 0.005
0.408359 0.291667 0.005
0.408185 0.333333 0.005
0.408011 0.375 0.005
0.407838 0.416667 0.005
0.407664 0.458333 0.005
0.40749 0.5 0.005
0.407316 0.541667 0.005
0.407143 0.583333 0.005
0.406969 0.625 0.005
0.406795 0.666667 0.005
0.406621 0.708333 0.005
0.406448 0.75 0.005
0.406274 0.791667 0.005
0.4061 0.833333 0.005
0.405927 0.875 0.005
0.405753 0.916667 0.005
0.405579 0.958333 0.005
0.405405 1.0 0.005
0.450532 0.0 0.005
0.450341 0.0416667 0.005
0.45015 0.0833333 0.005
0.449959 0.125 0.005
0.449768 0.166667 0.005
0.449577 0.208333 0.005
0.449386 0.25 0.005
0.449195 0.291667 0.005
0.449003 0.333333 0.005
0.448812 0.375 0.005
0.448621 0.416667 0.005
0.44843 0.458333 0.005
0.448239 0.5 0.005
0.448048 0.541667 0.005
0.447857 0.583333 0.005
0.447666 0.625 0.005
0.447475 0.666667 0.005
0.447284 0.708333 0.005
0.447093 0.75 0.005
0.446901 0.791667 0.005
0.44671 0.833333 0.005
0.446519 0.875 0.005
0.446328 0.916667 0.005
0.446137 0.958333 0.005
0.445946 1.0 0.005
0.49149 0.0 0.005
0.491281 0.0416667 0.005
0.491073 0.0833333 0.005
0.490864 0.125 0.005
0.490656 0.166667 0.005
0.490447 0.208333 0.005
0.490239 0.25 0.005
0.49003 0.291667 0.005
0.489822 0.333333 0.005
0.489613 0.375 0.005
0.489405 0.416667 0.005
0.489197 0.458333 0.005
0.488988 0.5 0.005
0.48878 0.541667 0.005
0.488571 0.583333 0.005
0.488363 0.625 0.005
0.488154 0.666667 0.005
0.487946 0.708333 0.005
0.487737 0.75 0.005
0.487529 0.791667 0.005
0.48732 0.833333 0.005
0.487112 0.875 0.005
0.486903 0.916667 0.005
0.486695 0.958333 0.005
0.486486 1.0 0.005
0.531954 0.00563435 0.005
0.531749 0.0470663 0.005
0.531544 0.0884982 0.005
0.531338 0.12993 0.005
0.531133 0.171362 0.005
0.530928 0.212794 0.005
0.530722 0.254226 0.005
0.530517 0.295658 0.005
0.530312 0.33709 0.005
0.530107 0.378521 0.005
0.529901 0.419953 0.005
0.529696 0.461385 0.005
0.529491 0.502817 0.005
0.529285 0.544249 0.005
0.52908 0.585681 0.005
0.528875 0.627113 0.005
0.528669 0.668545 0.005
0.528464 0.709977 0.005
0.528259 0.751409 0.005
0.528054 0.79284 0.005
0.527848 0.834272 0.005
0.527643 0.875704 0.005
0.527438 0.917136 0.005
0.527232 0.958568 0.005
0.527027 1.0 0.005
0.572289 0.0127465 0.005
0.572093 0.0538821 0.005
0.571896 0.0950177 0.005
0.571699 0.136153 0.005
0.571502 0.177289 0.005
0.571306 0.218424 0.005
0.571109 0.25956 0.005
0.570912 0.300695 0.005
0.570715 0.341831 0.005
0.570519 0.382967 0.005
0.570322 0.424102 0.005
0.570125 0.465238 0.005
0.569928 0.506373 0.005
0.569732 0.547509 0.005
0.569535 0.588644 0.005
0.569338 0.62978 0.005
0.569142 0.670916 0.005
0.568945 0.712051 0.005
0.568748 0.753187 0.005
0.568551 0.794322 0.005
0.568355 0.835458 0.005
0.568158 0.876593 0.005
0.567961 0.917729 0.005
0.567764 0.958864 0.005
0.567568 1.0 0.005
0.612625 0.0198587 0.005
0.612436 0.0606979 0.005
0.612248 0.101537 0.005
0.61206 0.142376 0.005
0.611872 0.183216 0.005
0.611684 0.224055 0.005
0.611496 0.264894 0.005
0.611307 0.305733 0.005
0.611119 0.346572 0.005
0.610931 0.387412 0.005
0.610743 0.428251 0.005
0.610555 0.46909 0.005
0.610366 0.509929 0.005
0.610178 0.550769 0.005
0.60999 0.591608 0.005
0.609802 0.632447 0.005
0.609614 0.673286 0.005
0.609425 0.714125 0.005
0.609237 0.754965 0.005
0.609049 0.795804 0.005
0.608861 0.836643 0.005
0.608673 0.877482 0.005
0.608484 0.918322 0.005
0.608296 0.959161 0.005
0.608108 1.0 0.005
0.65296 0.0269708 0.005
0.65278 0.0675137 0.005
0.652601 0.108057 0.005
0.652421 0.148599 0.005
0.652241 0.189142 0.005
0.652062 0.229685 0.005
0.651882 0.270228 0.005
0.651702 0.310771 0.005
0.651523 0.351314 0.005
0.651343 0.391857 0.005
0.651164 0.4324 0.005
0.650984 0.472943 0.005
0.650804 0.513485 0.005
0.650625 0.554028 0.005
0.650445 0.594571 0.005
0.650265 0.635114 0.005
0.650086 0.675657 0.005
0.649906 0.7162 0.005
0.649726 0.756743 0.005
0.649547 0.797286 0.005
0.649367 0.837828 0.005
0.649188 0.878371 0.005
0.649008 0.918914 0.005
0.648828 0.959457 0.005
0.648649 1.0 0.005
0.693295 0.034083 0.005
0.693124 0.0743295 0.005
0.692953 0.114576 0.005
0.692782 0.154823 0.005
0.692611 0.195069 0.005
0.69244 0.235316 0.005
0.692269 0.275562 0.005
0.692098 0.315809 0.005
0.691926 0.356055 0.005
0.691755 0.396302 0.005
0.691584 0.436548 0.005
[...]
CELL_DATA 888
SCALARS P float 1
LOOKUP_TABLE default
100056.6806245803
100056.40651085193
100083.08681439566
100054.83708533295
100082.90344394391
100126.14283804609
100052.20394364791
100080.64125470867
100126.12826300762
100195.40380781224
100048.74032076991
100076.7189909728
100122.64956874457
100195.69928432532
100305.84143736938
100044.68533246727
100071.53352306849
100116.46076697686
100190.08435659551
100306.69753676245
100481.11002793784
100040.27234336497
100065.47231292479
100108.26975642552
100179.93952316864
100297.2860084466
100482.90100071937
100759.21153707374
100035.71477434086
100058.90025275206
100098.74649423474
100166.56409205034
100280.2093274803
100466.56499582122
100762.21524552493
101203.11045767483
100031.19498534674
100052.14183106006
100088.49881012726
100151.15432913783
100257.90952098677
100437.19221199631
100732.71074069964
101206.23854865867
101923.06290719961
100026.85816655187
100045.46785308872
100078.04717575712
100134.75284898127
100232.55920689658
100399.47530237552
100681.0999978133
101150.21707333
101918.22248800116
103130.69366370639
100022.81094285329
100039.08924749483
100067.80970176785
100118.21266428988
100205.96143123871
100357.38564052491
100616.56009923587
101057.34446096807
101804.93146325035
103079.16962606098
105292.53065537661
100019.12358753823
100033.15740764586
100058.09974132772
100102.18780544108
100179.51499727598
100314.02355173595
100546.3215075715
100945.72592058503
101633.18081080011
102832.407907764
105022.85281169764
109642.07099779851
100015.83463993754
100027.76933790314
100049.13242883867
100087.14251948668
100154.22944906722
100271.63795005372
100475.5993132576
100828.25358511135
101438.27603456147
102505.35623789672
104442.69101097151
108370.88587630715
120204.15713025026
100012.956625574
100022.97561282318
100041.03737001377
100073.37589832282
100130.77644354175
100231.73802859956
100407.86439350536
100713.28430971001
101241.9557155407
102162.6808634675
103804.0369484311
106927.18888532522
113999.53485313225
129900.66794034524
100010.48209949581
100018.78950185228
100033.87410112219
100061.05065788348
100109.54936928356
100195.23887185102
100345.23045744725
100605.78636249401
101056.37918609784
101836.3514183815
103201.99030736343
105674.20363698028
110499.77485409757
120272.35408811072
137346.9115168319
100008.38942496624
100015.1960924442
100027.64780126176
100050.223131939
100090.72753113098
100162.60629685977
100288.81804289838
100508.37792510874
100887.62626124245
101540.392062543
102666.75984975729
104636.29558381237
108180.3102626789
114756.39062078913
126192.38753337032
143245.05065857593
100006.64785571229
100012.16084356121
100022.3240303017
100040.87124692432
100074.33286057155
100133.97992861125
100239.05265161277
100422.12808250019
100738.11295313596
101279.57741009828
102203.77863304384
103782.52127780349
106493.54794082583
111230.89838959074
119227.96406676449
131482.11501251627
147974.57729483204
100005.22185389904
100009.63685358269
100017.8417772503
100032.91821959837
100060.27647465667
100109.27606292618
100195.89807940886
100347.12787986857
100608.13289623435
101054.04191212535
101809.343003213
103079.79701425703
105201.50467425642
108770.41728368046
114623.36281178372
123598.29330064802
136101.2677165807
151770.8136713577
100004.07463502392
100007.57099713181
100014.12421837902
100026.25301090385
100048.39851180535
100088.26539895013
100159.02262517058
100282.8719455653
100496.79229607875
100861.67583154132
101476.66741555168
102500.84264440466
104182.6744449696
106946.45599328441
111384.32566602885
118145.78540878964
127701.00173048407
140081.7636237549
154799.6139199746
100003.17094510172
100005.90887948159
100011.08740781898
100020.74585642664
100038.49744389544
100070.63288897509
100127.92338595414
100228.5237513681
100402.57726431939
100699.38165545129
101198.23906516467
102023.95239688264
103366.30238918048
105541.7609149196
108988.68344455624
114210.8783336584
121639.72547962518
131455.71759369934
143475.55651817232
157188.77047406492
100002.47933954623
100004.59871016287
100008.64729757106
100016.26095951216
100030.35384664584
100056.02109544835
100102.01076288185
100183.08189857645
100323.70291557917
100563.72519364418
100966.74906238395
101631.6672360936
102706.51928790416
104434.80389112319
107152.92125658094
111259.93205601526
117133.01673463774
124997.6938789252
134831.3754088167
146340.4159407571
159041.96959761708
100001.97421638947
100003.5944800965
100006.7249571785
100012.66553460612
100023.74629901322
100044.06169676494
100080.66732491474
100145.49108333913
100258.31320098255
100451.28104308645
100775.47120764162
101309.7434584774
102171.17341694373
103550.78076743628
105713.26954685569
108981.26153745617
113682.43114159274
120053.68295734088
128151.72320339968
137824.03298904453
148733.95489886106
160446.82713203705
100001.63800299814
100002.85891785071
100005.2509738204
100009.83727741349
100018.46468157985
100034.3974523711
100063.28670539193
100114.71563436431
100204.60198050702
100358.81378301833
100618.37307703849
101046.3987516933
101736.27478243447
102839.66403697437
104568.17578282126
107186.22038314337
110978.75882387316
116181.13325732764
122898.62920735717
131063.09538167484
140446.79550702253
150711.93641577242
161479.41038043526
100001.46438626264
100002.36690900753
100004.16965719326
100007.66995957098
100014.31866710869
100026.6974160688
100049.2999983693
100089.77949400792
100160.88458623683
100283.36535203666
100490.13498091837
100831.80248377108
101383.23248609461
102265.71739101547
103649.90477036507
105754.20547592203
108826.05184604615
113092.12348672787
118689.98114870544
125614.48208227912
133712.9095089733
142722.6777812026
152327.79496378175
162206.8856740417
100002.11086289606
100003.44414924861
100006.07930622701
100011.14549204332
100020.66757700419
100038.19293889782
100069.7949365719
100125.63185434972
100222.28628377226
100386.11463936364
100657.71001534851
101097.24685852844
101802.07618145998
102910.49465762396
104603.41026027671
107094.6867640828
110597.41288248946
115268.89639577981
121154.98697321958
128165.62212722881
136097.0682950045
144679.77472511271
153631.9285313093
162686.2434361001
100003.06479751928
100005.0103197408
100008.81723402323
100016.05982394262
100029.5171512538
100053.97678648445
100097.48825432455
100173.24825451233
100302.30511078774
100517.18322329057
100866.29478331878
101427.88916607088
102314.25630493078
103675.2124739089
105694.44388966914
108567.77942254514
112461.607727034
117461.31907067768
123534.26479484283
130530.51189417201
138221.8882510988
146349.69957975115
154671.00980590197
162969.97945168428
100004.44981958257
100007.25141460911
100012.6812876412
100022.89861628434
100041.65114873544
100075.27965984104
100134.23592219641
100235.27126414556
100404.39354622124
100680.52833457394
101126.56905112835
101833.67033496886
102925.67845558256
104559.22039570173
106910.73689672201
110146.71025096827
114380.09452480967
119628.68936248787
125797.69320259133
132699.44595113973
140100.7572956238
147765.0258588182
155489.3912961309
163100.08064836415
100006.429000957
100010.40852867115
100018.04975531473
100032.26389088476
100058.01367551318
100103.5329306515
100182.09819167385
100314.44594499908
100531.82337515181
100884.71343723724
101447.01117719042
102320.7972467411
103638.62661759637
105556.71865927294
108234.9070571924
111802.2712065947
116317.0315858856
121737.97455694966
127925.01691968206
134671.72731979072
141752.2005749317
148958.87936024036
156124.3612428073
163116.5854322367
100009.21338818323
100014.78761731256
100025.39215206378
100044.88314564378
100079.70883275702
100140.3412322514
100243.25382983356
100413.46527631639
100691.4000068014
101136.83031790008
101833.5870314366
102893.02622771426
104451.4461061946
106657.36590093425
109646.1774520148
113505.24075482803
118240.90359886915
123764.19366195181
129905.06509627735
136453.1699081072
143197.6777801807
149962.5712217996
156613.82641924883
163051.03969486998
100013.07060438709
100020.76892325163
100035.27793953079
100061.61296629696
100107.98826912703
100187.43224606242
100319.90802598574
100537.69199250307
100888.97337296278
101442.30883769048
102290.61433373562
103551.24785030705
105358.74763827081
107847.20859512044
111122.07688755199
115228.02017050024
120125.56396379424
125689.5005865805
131733.8137990665
138053.68162947468
144459.87726383173
150805.60120940994
156987.36203473696
162934.76299180483
100018.33330752872
100028.8147870809
100048.38163775249
100083.43443385023
100144.22310917551
100246.60703640108
100416.25931015972
100691.8873233195
101129.29793847544
101805.50651362003
102820.4195769733
104293.43074430211
106351.89919247259
109109.90685521251
112639.94328201734
116945.9806182798
121950.3513581578
127502.85368089016
133412.92951232815
139487.61484113184
145561.89242450692
151516.2342402793
157274.67422182203
162787.71975887322
100025.40661263722
100039.47580351244
100065.48376267093
100111.44074636683
100189.88102179494
100321.12798557492
100536.13710099205
100880.1168223339
101416.48441692657
102229.42859794872
103423.10362937237
105114.77639651723
107419.65419917078
110427.87864231125
114178.19384430323
118638.06470828192
123699.88144912457
129199.33121730722
134948.43040347274
140770.45704889283
146525.87839751225
152120.24226768437
157499.55683852296
162636.66899352102
100034.77478823694
100053.3953703008
100087.4693912712
100146.83371397018
100247.48579625055
100414.05298509616
100682.95864026068
101106.07946579173
101753.71957842431
102715.43636142019
104096.5511379212
106008.07390852024
108549.03069835652
111783.32469228283
115717.28740431099
120287.38429961022
125364.16963033906
130777.42166303511
136348.70641958865
141919.76672066393
147374.02903672503
152640.61394117895
157684.56050443693
162495.93881817057
100047.00715139002
100071.31410947426
100115.33522077824
100191.56638432923
100319.4679879364
100528.20986850063
100859.94479616306
101372.87822338917
102143.05192805412
103263.19512685818
104836.58148623188
106964.25700992922
109726.10979095756
113159.19721634322
117240.33414367036
121880.4457338259
126937.59095524703
132241.1511769066
137625.15785190082
142951.88754055294
148126.1146178834
153097.09646565767
157848.43216599573
162385.06082177072
100062.76617714998
100094.08548631117
100150.60785041722
100247.56480561598
100408.14086282106
100666.34203438142
101069.94682290594
101682.8100889034
102585.2314336563
103870.67878283336
105637.21404365845
107972.91835944787
110936.82611107311
114539.8781024855
118733.3515234486
123408.9625614465
128417.5515968912
133594.89494407197
138789.33663157435
143882.50556913335
148800.27260572687
153508.97873822777
158008.7061499798
162320.2609049089
100082.82715147802
100122.93922295944
100194.8262182735
100316.71498634746
100515.80428559339
100830.97746092618
101315.2873857664
102037.25782409798
103079.67861708014
104534.25705923792
106491.0896634749
109023.00116591509
112167.5381667766
115911.68692085161
120184.853418918
124866.71069005167
129805.66077125673
134846.1948119664
139853.27029468075
144727.1516507658
149412.00579502626
153891.1798126902
158178.4386243311
162318.6807378895
100108.2589361351
100159.14311414603
100249.53609602751
100400.92791454155
100644.64232562
101024.29821015979
101597.61601959859
102436.5687772448
103624.50924748325
105249.01551386075
107389.82515458557
110103.2788964917
113405.80091416925
117262.71957083668
121587.03894734253
126250.29185442359
131103.59932087388
136002.8695522742
140828.34359229304
145498.6862531414
149974.74636606098
154254.1059691409
158363.83311685192
162364.97152653823
100140.17757599881
100203.99614684872
100316.32868515029
100502.06245315688
100796.62948732192
101248.02720865149
101917.82257553512
102880.0357310004
104216.6397237353
106008.90969916956
108324.55115951064
111202.55158452346
114639.99433595475
118583.57605380891
122933.92865431691
127559.1040294572
132315.84494718222
137072.41074783792
141724.24617752302
146206.85780344094
150494.841284607
154593.54717422105
158530.53541982514
100179.74425397416
100258.8493290596
100396.7811134495
100621.85263056144
100973.42023045145
101503.33235055712
102276.00013854631
103365.9502736092
104851.96628285118
106807.2025472376
109286.2053327623
112311.06499904867
115860.50026390738
119866.69069272862
124221.70536099025
128793.37585725679
133446.09308215152
138060.18487841522
142546.89739583942
146854.18082530083
150960.8950287615
154859.7972323494
100228.17349128626
100325.06460506213
100492.39983326747
100761.82487615908
101176.2730567715
101790.7575384269
102671.37981970893
103891.69436303938
105525.6052302441
107636.75939488117
110265.98548545165
113419.0697188558
117058.81685372593
121106.26377022079
125447.5745174693
129953.48746379091
134496.84738745817
138970.05610392118
143294.67417686447
147422.48713234605
151308.36422190556
100286.69840136173
100403.9622066398
100604.55504732861
100923.22245571318
101405.99323923264
102110.19251643738
103102.43110277213
104453.82394621494
106231.87099563133
108489.98135478629
111255.05888781587
114517.75646679808
118227.8045249261
122296.94356305557
126608.94567234366
131038.84980444628
135467.13342646146
139794.84447963984
143944.47267560413
147835.12555592676
100356.53022615785
100496.77341111902
100734.42175971513
101106.95021548343
101662.87556917997
102460.89160387088
103566.9126974441
105048.34111220777
106965.1338690988
109359.62124432375
112245.58016385027
115599.78792105705
119360.93187361835
123433.80351925147
127702.29800706751
132044.46830442935
136346.80714873597
140505.9609680713
144408.0869170953
100438.80908032671
100604.5889617141
100882.92347683798
101313.539775817
101946.68866156744
102841.48054184536
104061.97420344556
105670.54052036964
107719.14910207363
110238.66464583758
113229.79993112452
116657.81717171261
120451.56731523688
124511.14751833832
128720.02669538975
132957.0055669153
137101.24346414002
141007.9177123732
100534.56561396814
100728.31179145708
101050.70148482664
101543.09704921824
102256.71037399092
103250.05233296767
104584.1595395118
106315.64838298305
108487.48609099523
111119.28115074465
114200.30162987877
117684.12392920397
121491.77930220612
125518.79476010572
129645.23723446444
133738.26088892456
137629.62983964742
100644.67621438528
100868.61667223129
101238.06147753868
101795.30765069107
102591.62621399763
103684.05067823856
105129.66480513397
106978.35396269821
109263.75998812623
111994.87221314553
115148.82430419826
118669.47224760002
122469.51280474849
126436.92571213105
130435.51649884955
134280.98708070465
100769.82294689697
101025.92484492013
101444.97630377635
102069.45826762462
102949.87581440531
104140.66711583051
105694.22907234626
107653.0326396495
110041.18910985618
112856.55056613675
116065.07447995663
119600.2301411972
123363.1020647675
127220.98720729347
130982.08389867582
100910.46778900598
101200.37183642578
101671.0951245295
102364.42613362973
103329.22673025052
104616.49341965702
106273.18933802492
108333.49629283386
110811.8445085581
113694.59955269413
116935.79582683515
120453.59757344544
124126.38170685204
127761.21400714612
101066.83168653066
101391.80829868816
101915.61065807451
102678.57036864242
103727.00805539028
105107.67388941196
106860.9819221837
109012.54362975605
111566.11889631808
114494.89237045545
117736.7637055331
121183.93662927092
124650.92367737489
101238.85548913882
101599.75976264209
102177.52526891395
103010.07438732834
104140.18824310318
105609.60071920742
107451.19337211513
109681.09630247006
112289.9230882721
115234.27451579784
118423.05129399932
121684.64456845981
101426.22685643367
101823.41879429278
102455.2554141933
103356.28021006097
104564.95418310714
106116.6758052675
108035.67681303313
110326.11617525283
112961.28824128734
115868.70484540767
118893.43994415257
101628.30318255282
102061.65521441597
102746.87936084981
103714.1986589408
104996.52749233543
106621.53253340804
108602.43207826962
110926.87854444089
113539.15991971927
116303.72791282834
101844.14392679118
102312.88520034557
103049.85936930159
104079.75646472363
105428.462613124
107113.39102755024
109132.34424709348
111444.86618641975
113934.88884287473
102072.36313220281
102574.96554763928
103360.78555966273
104447.32567563889
105851.06199624122
107575.08126260627
109590.48334607983
111799.91048739266
102311.02709635356
102844.94784093989
103674.69065825999
104808.59938885435
106249.1647769848
107975.21758349704
109904.74206853642
102557.48605590622
103118.57726848059
103984.52953382937
105150.13752043735
106595.36101365893
108249.99464454009
102807.83763836819
103389.38941826095
104278.27774126176
105447.67526700301
106833.2699985724
103056.11452826252
103646.89324993858
104534.920451938
105652.68225393024
103292.61182203874
103872.41874166852
104711.88211294614
103499.95123217787
104028.06663739971
103643.24500466092
SCALARS T float 1
LOOKUP_TABLE default
300.0489466589878
300.0486999824658
300.07197525771136
300.047333018609
300.0717925935483
300.1097258915109
300.0450463156003
300.06980653488745
300.10965593883355
300.17088137555027
300.04204249024474
300.0663806494809
300.10656883969466
300.17100307382896
300.26928451974277
300.0385293494528
300.0618611836092
300.10112216653346
300.16595125323784
300.2697143148484
300.4272528272723
300.0347094914624
300.0565865243286
300.09393708062686
300.15693735724983
300.26110229463376
300.42807965330286
300.68142134058405
300.03076787014356
300.05087495351944
300.08560222567763
300.1451098089223
300.24575078280407
300.41283147299566
300.6823285681342
301.0936458725401
300.0268621606342
300.0450088047086
300.0766507477107
300.1315272261204
300.2258371044653
300.3860562642344
300.6541857388057
301.0923525628305
301.7731403929643
300.0231175494509
300.0392229166644
300.0675375592863
300.11710991052473
300.20329966234135
300.3519796265608
300.60639221348026
301.037801779563
301.75939244484533
302.9264801181043
300.01962564436445
300.0336994437261
300.0586263333092
300.10260704243467
300.17974095921284
300.31417637725923
300.54729817436544
300.950372976049
301.64743330651146
302.8590381323349
304.9863417171459
300.0164465113511
300.0285684210926
300.0501879273537
300.0885890194528
300.1563953985052
300.27542133743907
300.4834701062451
300.8466999887765
301.48335239949864
302.6145986702309
304.7011973475398
308.98995377473153
300.01361277184594
300.02391249881606
300.0424067279717
300.0754569093599
300.13414477403967
300.23770689854354
300.4196048226345
300.7385817608963
301.2998125562906
302.2993152846411
304.1361733828681
307.8110216181907
317.7990602463762
300.01113462342994
300.019774065997
300.0353923044499
300.06346555750787
300.11356721617426
300.2023497063812
300.35878191181797
300.6335743537388
301.11680886959783
301.97315540583674
303.5216861184551
306.4624448839328
312.78780549727946
325.4105206693585
300.009005109044
300.01616331639804
300.0291933321814
300.05275008300356
300.09499322274445
300.17012892195686
300.3028314786647
300.5360675927361
300.94532602655636
301.6655827493455
302.9462703859288
305.2780213373791
309.72499936579595
318.11135560975396
331.0366134708847
300.00720513050896
300.0130662456268
300.023811569093
300.04335304749645
300.07856487344975
300.14142225489263
300.2526802028171
300.4482742297491
300.79063602811385
301.38913710676275
302.4382280572677
304.29158568492113
307.6027946905999
313.50969364089235
322.9512859054308
335.385864280169
300.00570783991066
300.0104520982102
300.0192148356616
300.0352494680508
300.0642874739893
300.11632029369576
300.2086327932004
300.37099401866857
300.6546032904675
301.14761607589804
302.00215819089095
303.4804999412735
306.02441716128834
310.38765991661415
317.372789346631
327.14215592424233
338.81441883303575
300.00448235717863
300.0082796603115
300.01534840950745
300.028367774121
300.05207141439394
300.0947206110424
300.170589576841
300.30415498962725
300.5371606689472
300.9404855859343
301.6337250480108
302.8158039501609
304.8044450677527
308.13098301921184
313.4235098937262
321.04232016727786
330.7076279073236
341.5329385105146
300.00349681205427
300.0065025463979
300.01214434955386