# vtk DataFile Version 2.0
JuliaCFD
ASCII
DATASET UNSTRUCTURED_GRID

POINTS 1900 float
0.0 0.0 0.005
0.0 0.0416667 0.005
0.0 0.0833333 0.005
0.0 0.125 0.005
0.0 0.166667 0.005
0.0 0.208333 0.005
0.0 0.25 0.005
0.0 0.291667 0.005
0.0 0.333333 0.005
0.0 0.375 0.005
0.0 0.416667 0.005
0.0 0.458333 0.005
0.0 0.5 0.005
0.0 0.541667 0.005
0.0 0.583333 0.005
0.0 0.625 0.005
0.0 0.666667 0.005
0.0 0.708333 0.005
0.0 0.75 0.005
0.0 0.791667 0.005
0.0 0.833333 0.005
0.0 0.875 0.005
0.0 0.916667 0.005
0.0 0.958333 0.005
0.0 1.0 0.005
0.0409575 0.0 0.005
0.0409401 0.0416667 0.005
0.0409227 0.0833333 0.005
0.0409054 0.125 0.005
0.040888 0.166667 0.005
0.0408706 0.208333 0.005
0.0408532 0.25 0.005
0.0408359 0.291667 0.005
0.0408185 0.333333 0.005
0.0408011 0.375 0.005
0.0407838 0.416667 0.005
0.0407664 0.458333 0.005
0.040749 0.5 0.005
0.0407316 0.541667 0.005
0.0407143 0.583333 0.005
0.0406969 0.625 0.005
0.0406795 0.666667 0.005
0.0406621 0.708333 0.005
0.0406448 0.75 0.005
0.0406274 0.791667 0.005
0.04061 0.833333 0.005
0.0405927 0.875 0.005
0.0405753 0.916667 0.005
0.0405579 0.958333 0.005
0.0405405 1.0 0.005
0.0819149 0.0 0.005
0.0818802 0.0416667 0.005
0.0818455 0.0833333 0.005
0.0818107 0.125 0.005
0.081776 0.166667 0.005
0.0817412 0.208333 0.005
0.0817065 0.25 0.005
0.0816717 0.291667 0.005
0.081637 0.333333 0.005
0.0816022 0.375 0.005
0.0815675 0.416667 0.005
0.0815328 0.458333 0.005
0.081498 0.5 0.005
0.0814633 0.541667 0.005
0.0814285 0.583333 0.005
0.0813938 0.625 0.005
0.081359 0.666667 0.005
0.0813243 0.708333 0.005
0.0812895 0.75 0.005
0.0812548 0.791667 0.005
0.0812201 0.833333 0.005
0.0811853 0.875 0.005
0.0811506 0.916667 0.005
0.0811158 0.958333 0.005
0.0810811 1.0 0.005
0.122872 0.0 0.005
0.12282 0.0416667 0.005
0.122768 0.0833333 0.005
0.122716 0.125 0.005
0.122664 0.166667 0.005
0.122612 0.208333 0.005
0.12256 0.25 0.005
0.122508 0.291667 0.005
0.122455 0.333333 0.005
0.122403 0.375 0.005
0.122351 0.416667 0.005
0.122299 0.458333 0.005
0.122247 0.5 0.005
0.122195 0.541667 0.005
0.122143 0.583333 0.005
0.122091 0.625 0.005
0.122039 0.666667 0.005
0.121986 0.708333 0.005
0.121934 0.75 0.005
0.121882 0.791667 0.005
0.12183 0.833333 0.005
0.121778 0.875 0.005
0.121726 0.916667 0.005
0.121674 0.958333 0.005
0.121622 1.0 0.005
0.16383 0.0 0.005
0.16376 0.0416667 0.005
0.163691 0.0833333 0.005
0.163621 0.125 0.005
0.163552 0.166667 0.005
0.163482 0.208333 0.005
0.163413 0.25 0.005
0.163343 0.291667 0.005
0.163274 0.333333 0.005
0.163204 0.375 0.005
0.163135 0.416667 0.005
0.163066 0.458333 0.005
0.162996 0.5 0.005
0.162927 0.541667 0.005
0.162857 0.583333 0.005
0.162788 0.625 0.005
0.162718 0.666667 0.005
0.162649 0.708333 0.005
0.162579 0.75 0.005
0.16251 0.791667 0.005
0.16244 0.833333 0.005
0.162371 0.875 0.005
0.162301 0.916667 0.005
0.162232 0.958333 0.005
0.162162 1.0 0.005
0.204787 0.0 0.005
0.2047 0.0416667 0.005
0.204614 0.0833333 0.005
0.204527 0.125 0.005
0.20444 0.166667 0.005
0.204353 0.208333 0.005
0.204266 0.25 0.005
0.204179 0.291667 0.005
0.204092 0.333333 0.005
0.204006 0.375 0.005
0.203919 0.416667 0.005
0.203832 0.458333 0.005
0.203745 0.5 0.005
0.203658 0.541667 0.005
0.203571 0.583333 0.005
0.203484 0.625 0.005
0.203398 0.666667 0.005
0.203311 0.708333 0.005
0.203224 0.75 0.005
0.203137 0.791667 0.005
0.20305 0.833333 0.005
0.202963 0.875 0.005
0.202876 0.916667 0.005
0.20279 0.958333 0.005
0.202703 1.0 0.005
0.245745 0.0 0.005
0.245641 0.0416667 0.005
0.245536 0.0833333 0.005
0.245432 0.125 0.005
0.245328 0.166667 0.005
0.245224 0.208333 0.005
0.245119 0.25 0.005
0.245015 0.291667 0.005
0.244911 0.333333 0.005
0.244807 0.375 0.005
0.244703 0.416667 0.005
0.244598 0.458333 0.005
0.244494 0.5 0.005
0.24439 0.541667 0.005
0.244286 0.583333 0.005
0.244181 0.625 0.005
0.244077 0.666667 0.005
0.243973 0.708333 0.005
0.243869 0.75 0.005
0.243764 0.791667 0.005
0.24366 0.833333 0.005
0.243556 0.875 0.005
0.243452 0.916667 0.005
0.243347 0.958333 0.005
0.243243 1.0 0.005
0.286702 0.0 0.005
0.286581 0.0416667 0.005
0.286459 0.0833333 0.005
0.286337 0.125 0.005
0.286216 0.166667 0.005
0.286094 0.208333 0.005
0.285973 0.25 0.005
0.285851 0.291667 0.005
0.285729 0.333333 0.005
0.285608 0.375 0.005
0.285486 0.416667 0.005
0.285365 0.458333 0.005
0.285243 0.5 0.005
0.285121 0.541667 0.005
0.285 0.583333 0.005
0.284878 0.625 0.005
0.284757 0.666667 0.005
0.284635 0.708333 0.005
0.284513 0.75 0.005
0.284392 0.791667 0.005
0.28427 0.833333 0.005
0.284149 0.875 0.005
0.284027 0.916667 0.005
0.283905 0.958333 0.005
0.283784 1.0 0.005
0.32766 0.0 0.005
0.327521 0.0416667 0.005
0.327382 0.0833333 0.005
0.327243 0.125 0.005
0.327104 0.166667 0.005
0.326965 0.208333 0.005
0.326826 0.25 0.005
0.326687 0.291667 0.005
0.326548 0.333333 0.005
0.326409 0.375 0.005
0.32627 0.416667 0.005
0.326131 0.458333 0.005
0.325992 0.5 0.005
0.325853 0.541667 0.005
0.325714 0.583333 0.005
0.325575 0.625 0.005
0.325436 0.666667 0.005
0.325297 0.708333 0.005
0.325158 0.75 0.005
0.325019 0.791667 0.005
0.32488 0.833333 0.005
0.324741 0.875 0.005
0.324602 0.916667 0.005
0.324463 0.958333 0.005
0.324324 1.0 0.005
0.368617 0.0 0.005
0.368461 0.0416667 0.005
0.368305 0.0833333 0.005
0.368148 0.125 0.005
0.367992 0.166667 0.005
0.367835 0.208333 0.005
0.367679 0.25 0.005
0.367523 0.291667 0.005
0.367366 0.333333 0.005
0.36721 0.375 0.005
0.367054 0.416667 0.005
0.366897 0.458333 0.005
0.366741 0.5 0.005
0.366585 0.541667 0.005
0.366428 0.583333 0.005
0.366272 0.625 0.005
0.366116 0.666667 0.005
0.365959 0.708333 0.005
0.365803 0.75 0.005
0.365647 0.791667 0.005
0.36549 0.833333 0.005
0.365334 0.875 0.005
0.365178 0.916667 0.005
0.365021 0.958333 0.005
0.364865 1.0 0.005
0.409575 0.0 0.005
0.409401 0.0416667 0.005
0.409227 0.0833333 0.005
0.409054 0.125 0.005
0.40888 0.166667 0.005
0.408706 0.208333 0.005
0.408532 0.25 0.005
0.408359 0.291667 0.005
0.408185 0.333333 0.005
0.408011 0.375 0.005
0.407838 0.416667 0.005
0.407664 0.458333 0.005
0.40749 0.5 0.005
0.407316 0.541667 0.005
0.407143 0.583333 0.005
0.406969 0.625 0.005
0.406795 0.666667 0.005
0.406621 0.708333 0.005
0.406448 0.75 0.005
0.406274 0.791667 0.005
0.4061 0.833333 0.005
0.405927 0.875 0.005
0.405753 0.916667 0.005
0.405579 0.958333 0.005
0.405405 1.0 0.005
0.450532 0.0 0.005
0.450341 0.0416667 0.005
0.45015 0.0833333 0.005
0.449959 0.125 0.005
0.449768 0.166667 0.005
0.449577 0.208333 0.005
0.449386 0.25 0.005
0.449195 0.291667 0.005
0.449003 0.333333 0.005
0.448812 0.375 0.005
0.448621 0.416667 0.005
0.44843 0.458333 0.005
0.448239 0.5 0.005
0.448048 0.541667 0.005
0.447857 0.583333 0.005
0.447666 0.625 0.005
0.447475 0.666667 0.005
0.447284 0.708333 0.005
0.447093 0.75 0.005
0.446901 0.791667 0.005
0.44671 0.833333 0.005
0.446519 0.875 0.005
0.446328 0.916667 0.005
0.446137 0.958333 0.005
0.445946 1.0 0.005
0.49149 0.0 0.005
0.491281 0.0416667 0.005
0.491073 0.0833333 0.005
0.490864 0.125 0.005
0.490656 0.166667 0.005
0.490447 0.208333 0.005
0.490239 0.25 0.005
0.49003 0.291667 0.005
0.489822 0.333333 0.005
0.489613 0.375 0.005
0.489405 0.416667 0.005
0.489197 0.458333 0.005
0.488988 0.5 0.005
0.48878 0.541667 0.005
0.488571 0.583333 0.005
0.488363 0.625 0.005
0.488154 0.666667 0.005
0.487946 0.708333 0.005
0.487737 0.75 0.005
0.487529 0.791667 0.005
0.48732 0.833333 0.005
0.487112 0.875 0.005
0.486903 0.916667 0.005
0.486695 0.958333 0.005
0.486486 1.0 0.005
0.531954 0.00563435 0.005
0.531749 0.0470663 0.005
0.531544 0.0884982 0.005
0.531338 0.12993 0.005
0.531133 0.171362 0.005
0.530928 0.212794 0.005
0.530722 0.254226 0.005
0.530517 0.295658 0.005
0.530312 0.33709 0.005
0.530107 0.378521 0.005
0.529901 0.419953 0.005
0.529696 0.461385 0.005
0.529491 0.502817 0.005
0.529285 0.544249 0.005
0.52908 0.585681 0.005
0.528875 0.627113 0.005
0.528669 0.668545 0.005
0.528464 0.709977 0.005
0.528259 0.751409 0.005
0.528054 0.79284 0.005
0.527848 0.834272 0.005
0.527643 0.875704 0.005
0.527438 0.917136 0.005
0.527232 0.958568 0.005
0.527027 1.0 0.005
0.572289 0.0127465 0.005
0.572093 0.0538821 0.005
0.571896 0.0950177 0.005
0.571699 0.136153 0.005
0.571502 0.177289 0.005
0.571306 0.218424 0.005
0.571109 0.25956 0.005
0.570912 0.300695 0.005
0.570715 0.341831 0.005
0.570519 0.382967 0.005
0.570322 0.424102 0.005
0.570125 0.465238 0.005
0.569928 0.506373 0.005
0.569732 0.547509 0.005
0.569535 0.588644 0.005
0.569338 0.62978 0.005
0.569142 0.670916 0.005
0.568945 0.712051 0.005
0.568748 0.753187 0.005
0.568551 0.794322 0.005
0.568355 0.835458 0.005
0.568158 0.876593 0.005
0.567961 0.917729 0.005
0.567764 0.958864 0.005
0.567568 1.0 0.005
0.612625 0.0198587 0.005
0.612436 0.0606979 0.005
0.612248 0.101537 0.005
0.61206 0.142376 0.005
0.611872 0.183216 0.005
0.611684 0.224055 0.005
0.611496 0.264894 0.005
0.611307 0.305733 0.005
0.611119 0.346572 0.005
0.610931 0.387412 0.005
0.610743 0.428251 0.005
0.610555 0.46909 0.005
0.610366 0.509929 0.005
0.610178 0.550769 0.005
0.60999 0.591608 0.005
0.609802 0.632447 0.005
0.609614 0.673286 0.005
0.609425 0.714125 0.005
0.609237 0.754965 0.005
0.609049 0.795804 0.005
0.608861 0.836643 0.005
0.608673 0.877482 0.005
0.608484 0.918322 0.005
0.608296 0.959161 0.005
0.608108 1.0 0.005
0.65296 0.0269708 0.005
0.65278 0.0675137 0.005
0.652601 0.108057 0.005
0.652421 0.148599 0.005
0.652241 0.189142 0.005
0.652062 0.229685 0.005
0.651882 0.270228 0.005
0.651702 0.310771 0.005
0.651523 0.351314 0.005
0.651343 0.391857 0.005
0.651164 0.4324 0.005
0.650984 0.472943 0.005
0.650804 0.513485 0.005
0.650625 0.554028 0.005
0.650445 0.594571 0.005
0.650265 0.635114 0.005
0.650086 0.675657 0.005
0.649906 0.7162 0.005
0.649726 0.756743 0.005
0.649547 0.797286 0.005
0.649367 0.837828 0.005
0.649188 0.878371 0.005
0.649008 0.918914 0.005
0.648828 0.959457 0.005
0.648649 1.0 0.005
0.693295 0.034083 0.005
0.693124 0.0743295 0.005
0.692953 0.114576 0.005
0.692782 0.154823 0.005
0.692611 0.195069 0.005
0.69244 0.235316 0.005
0.692269 0.275562 0.005
0.692098 0.315809 0.005
0.691926 0.356055 0.005
0.691755 0.396302 0.005
0.691584 0.436548 0.005
[...]
CELL_DATA 888
SCALARS P float 1
LOOKUP_TABLE default
100141.1661714831
100140.82144803686
100199.03788673034
100138.44756242991
100198.91105170589
100283.47302703743
100134.37213972163
100195.61354566363
100283.74119581968
100407.01412696551
100128.90462369745
100189.73637128597
100278.95219097375
100407.95552476625
100588.41294415771
100122.35629013513
100181.80367864626
100270.13680842065
100400.69373838425
100590.47635412608
100856.0657742851
100115.0341229547
100172.3142806336
100258.20535284287
100387.03154471115
100578.9957370825
100859.91926536962
101253.87012963126
100107.22767066589
100161.74064498281
100243.99846985348
100368.57991516693
100557.20455382016
100840.96987361507
101260.22996102486
101852.04704237643
100099.19698103599
100150.51499642675
100228.28242157225
100346.79401720516
100528.01813643138
100805.24934509928
101227.38066286573
101860.47207793586
102769.71684910613
100091.16483171227
100139.01617955937
100211.73143643743
100322.95019239919
100494.00022516144
100758.17102855547
101167.15346834778
101800.05515643244
102773.00818800632
104229.38379564357
100083.31360285069
100127.5619332532
100194.91424286741
100298.12149641094
100457.29847137057
100704.29788536069
101089.83738341113
101695.34315080386
102653.65075380348
104189.78448589132
106711.74293896343
100075.78590285426
100116.40729772454
100178.29088304589
100273.1726346058
100419.62737076342
100647.23888820957
101003.56238250234
101566.19190485899
102465.3609797894
103933.93473529395
106457.49434817501
111473.28601903672
100068.68794161102
100105.74793169789
100162.21731571527
100248.76850800482
100382.28962054572
100589.69403422959
100914.29353256476
101426.86709103131
102246.25011435976
103583.30916727321
105862.06546161366
110212.76793381275
122598.22734905551
100062.09434854618
100095.72650579938
100146.95617993455
100225.39834011128
100346.2309531159
100533.57940143178
100826.14154243657
101286.82028642768
102020.13656786054
103207.05458758975
105189.11286993758
108740.09031794535
116347.1556971839
132908.15152514738
100056.05367142381
100086.44073418666
100132.69061825026
100203.40262173081
100312.09912419278
100480.17989247109
100741.77806679421
101151.91529174094
101800.746154018
102840.18937556278
104540.47554027189
107436.5214293082
112788.77732607783
123199.31817862426
140985.39437656724
100050.59397344833
100077.95176622098
100119.53874234269
100183.0015069399
100280.30842177614
100430.2989732445
100662.81743452365
101025.52209160852
101595.37795906236
102498.88243185334
103950.47568160247
106334.55828464613
110395.59647283937
117599.54260611461
129752.17637206473
147534.0382095744
100045.72805147278
100070.2925794941
100107.5676248108
100164.32197934014
100251.09576575413
100384.38311318499
100590.12557934882
100909.35513408713
101407.43224335858
102189.49766475744
103427.26438090415
105407.86256635337
108622.98524047622
113977.81908111158
122693.64214874007
135717.49275319808
152929.9263840553
100041.45820366875
100063.47536718
100096.80619137794
100147.42058029832
100224.5659192839
100342.62628300666
100524.06169646546
100804.07030834173
101238.0254341397
101913.41038781585
102969.07934006848
104626.37157949198
107236.25865901541
111408.96294381608
117977.38436715056
127744.7604509702
141045.88850708926
157402.6096841392
100037.78055996334
100057.49830880729
100087.25627102992
100132.30424995958
100200.73210534167
100305.04795303011
100464.64673971738
100709.65971487362
101086.96893355298
101669.52307027038
102570.6222239801
103964.98624672028
106116.70061741941
109466.98057399027
114610.87579777579
122175.5337967405
132577.1238010889
145760.3087470914
161110.49734662715
100034.68891747188
100052.3515779249
100078.90205506327
100118.94604901095
100179.54483580923
100271.55396570847
100411.69205771561
100625.72839136692
100953.36260783614
101455.59451852375
102225.58260074002
103403.69369111194
105195.82632760778
107937.36173133594
112075.10571362941
118100.74554716487
126405.61004342405
137100.20031682446
149903.49250840629
164172.92457890857
100032.17855774796
100048.02274388568
100071.71879553927
100107.29958640852
100160.91779280968
100241.9806357576
100364.88577276186
100551.66513885299
100835.9620272375
101268.93090382751
101927.66122211005
102926.41634085191
104429.62410009367
106701.08484220403
110089.94577456439
114991.66786313757
121755.47137140983
130550.49020865944
141272.03103665746
153522.7168107159
166684.66489357862
100030.25056695132
100044.50223662006
100065.68009830614
100097.30958775281
100144.7443884835
100216.1283916342
100323.85380811262
100486.75751690101
100733.38670871378
101106.7538067936
101671.00513133945
102520.08139863296
103787.52958398682
105685.51577613413
108494.74681603097
112541.21432548492
118135.30096081558
125469.77151522622
134531.257303901
145077.59309798438
156664.66407316775
168724.28477694342
100028.91761892664
100041.78995678925
100060.76581399128
100088.92316817628
100130.91518481713
100193.78658292697
100288.20126400646
100430.27085886481
100644.24777060415
100966.39705269202
101450.34551723106
102173.92241639207
103246.90492579975
104842.50921327529
107190.73620795282
110564.89993620454
115241.97025612455
121424.71086285822
129159.27716695104
138297.0913679787
148517.45782778002
159374.0825156378
170358.9420187147
100028.21375471806
100039.90480106248
100056.9719327026
100082.10015948214
100119.33025366365
100174.75283528616
100257.5430746109
100381.48991754293
100567.2262245131
100845.40401108643
101261.03560266434
101879.00260726041
102790.34534036272
104137.98789321931
106112.58957256495
108945.80782326253
112884.93615001456
118134.88313157127
124785.1426390795
132758.86664562128
141816.76844871172
151602.22247420883
161693.55841747273
171647.27505002907
100038.90124982633
100054.32518604973
100076.8275925435
100109.91486035568
100158.84996940735
100231.52720389298
100339.75521240997
100501.11135229372
100741.56252162615
101099.02422861432
101627.86765608682
102404.11133373874
103546.52683368904
105214.46738190044
107605.36903902031
110939.41373672806
115417.7164721354
121160.70532136969
128151.83454089666
136220.00419298615
145072.64866458418
154347.5570922887
163663.01269563555
172638.0817356243
100052.90862294371
100073.14085940333
100102.63811802573
100145.94553686937
100209.85502540554
100304.48414766586
100444.82633337345
100652.92761410866
100960.82596302265
101414.2758046796
102077.10928503069
103048.5636897588
104462.54404836745
106487.78495549673
109319.47500739084
113150.01816889977
118119.87381452181
124262.35754382981
131470.37024302589
139507.51226546665
148057.3786969954
156773.00874661276
165319.25887070404
173376.72180409683
100071.16093628568
100097.54380606153
100135.9774277556
100192.30254719553
100275.19123981865
100397.44708471633
100577.8221409426
100843.46295899437
101233.01598529483
101800.3173546854
102628.64567247815
103830.93289709937
105551.59478180352
107962.80716958396
111244.81261374765
115548.39009908085
120945.45350392678
127387.65855111448
134696.83610477328
142597.34190207478
150770.94636988532
158899.64246964862
166697.57727667686
173898.03295508676
100094.80193951778
100128.99527978839
100178.75612102577
100251.5161204815
100358.21712205076
100514.83474636058
100744.4262070789
101079.73636118803
101566.34566558685
102274.37947195253
103299.35252674474
104764.96317541509
106822.34659243745
109637.45767047632
113363.61708699941
118099.98866146273
123848.62621972334
130490.30332347422
137796.46630282683
145474.27295883273
153218.8825333015
160749.98970946154
167827.2537260865
174236.96669704668
100125.23191158722
100169.2663677191
100233.26398458943
100326.57585238047
100462.82736258536
100661.6408554622
100950.83642968237
101369.12992343017
101975.73170149515
102851.62769346476
104102.810348669
105861.36632525314
108278.09367137116
111502.90548447502
115651.9658944961
120767.52064098636
126785.70743317946
133530.7398444197
140743.0057374185
148130.08433088055
155410.63137053518
162345.81178274707
168739.1364559685
174419.87718415254
100164.14636271642
100220.47933155493
100302.20991781744
100420.9616357624
100593.45613649981
100843.37950708963
101203.7045002568
101724.56170068169
102474.73201708093
103545.05565699477
105050.6263798124
107126.9334878646
109916.55629376815
113544.13026811565
118081.41233301468
123512.7492357324
129716.59573088147
136475.92731468283
143517.35725752648
150561.2434775279
157357.89336469688
163708.40862803702
169457.3090961546
174475.39133486946
100213.57625593642
100285.14610126441
100388.7556189046
100538.6589382398
100755.0531448397
101066.07311001209
101514.25458748367
102158.10751522644
103075.50003786113
104366.46233152456
106151.70408655905
108564.0438238485
111729.9628508175
115740.99770976596
120620.57032765218
126298.2382863919
132605.40073275834
139299.1078180596
146106.5294303359
152769.65690863546
159074.05509488314
164859.13254340843
170007.21577420764
174420.8575502979
100275.92599690324
100366.20454233815
100496.54062595627
100684.1591700499
100953.10209251064
101339.50649103826
101893.21576336057
102680.99698397098
103789.60987705263
105325.87414859862
107411.5772052739
110170.40244505071
113705.33767457506
118069.28306146659
123236.59617189494
129088.3380488093
135420.9190571568
141979.70221044304
148502.70328427898
154759.6159545285
160573.081749974
165818.3212091716
170409.76768240865
174282.6307238651
100354.01135410067
100467.05068640423
100629.70188067545
100862.50191229254
101196.18515013186
101673.2359747798
102350.9019894996
103304.30284827792
104627.49788351479
106430.82007189572
108831.98283385645
111938.9883157665
115825.24259423856
120501.84435420726
125896.51278859422
131850.3381430473
138136.82539646028
144501.11571718767
150701.60562992067
156538.84459778178
161870.30146945966
166605.0713922418
170686.37659288765
174075.76560762624
100451.09416714772
100591.56906793456
100792.92694478389
101081.29373472041
101492.85892155742
102076.69384192102
102897.73552257822
104038.46862450287
105597.90533939606
107685.89983428041
110410.61572356625
113858.36665109592
118068.48219140727
123009.76550643999
128568.25198749428
134554.27686131757
140731.33158126197
146853.13476042607
152703.18538724072
158115.43935274897
162980.34810841616
167237.16957312202
170856.23443064443
173823.96738604232
100570.9207829447
100744.19757174763
100993.05861705684
101348.24384537521
101851.74193968887
102559.59638839142
103543.86435724837
104892.77155138292
106707.31845863668
109092.37363851811
112141.04082966517
115912.98384583385
120410.99819396628
125563.36141051889
131221.4193149016
137174.91910579518
143186.20257578796
149027.05814749745
154509.00062738915
159498.41510255475
163917.87706796802
167733.2126150144
170940.06607221402
173551.8961561562
100717.79091751257
100931.22410133042
101237.12330998477
101671.25814867998
102281.85741743588
103131.65241967673
104298.75847296251
105874.92328565096
107959.55597035114
110647.81617969472
114012.82364416993
118083.85353120218
122826.61479457712
128133.10016818809
133827.24005851187
139689.17015798826
145488.21170679797
151018.5463186592
156122.62424644653
160698.13815081556
164696.75512331197
168110.34648537115
170959.3757171567
173301.3503411789
100897.68748645762
101159.18365971517
101532.4374986548
102058.71592913648
102792.38405858671
103802.20514280097
105170.7410063654
106990.52085966218
109355.36873461539
112346.16320681838
116011.70755265495
120349.02404719904
125288.1084778524
130689.8858368977
136360.2113402295
142077.20823127156
147625.2905845037
152824.9556170489
157548.36948461467
161724.10611448632
165330.91196836674
168385.7816390962
170941.90364747588
173123.32541750037
101116.85766631024
101434.9488676862
101886.82960027497
102519.27378693188
103392.40126118621
104579.85553898258
106166.5649339645
108242.62673816443
110892.178527675
114177.49881765542
118120.10806179333
122683.9241702088
127767.1456864252
133206.1622199768
138796.53464135824
144322.7299096585
149589.24399325083
154444.59464441662
158790.53587126156
162584.81731536347
165831.62962707112
168574.64254669013
170915.47037257088
101381.92572352526
101765.91253609693
102308.46698219507
103061.63090619462
104090.50407014774
105472.0494565779
107290.99700895745
109631.43649274547
112563.87120338397
116128.36077502467
120317.36145628229
125063.21116460518
130235.9731534577
135655.46320829532
141114.7944997922
146410.9749605474
151372.16101228705
155875.15237704548
159851.6390242889
163285.32211529804
166203.57369868472
168682.61325591314
101700.03033031343
102159.86091490032
102805.6688738633
103694.24358639475
104894.45672140454
106484.62247864988
108546.28783709164
111153.9768669443
114360.79799048447
118181.94276517358
122580.33908723484
127459.24796914248
132666.56052486907
138012.75988348198
143294.92939109402
148328.11661220723
152966.12749775368
157114.09904449026
160729.8298693318
163819.879254847
166430.5650485567
102078.7155114909
102624.77968853977
103386.65295539619
104424.96168382531
105810.80593226702
107621.37875109448
109931.92066602466
112803.78589311823
116269.41850278199
120317.83285485106
124883.17007845994
129843.55926799349
135031.21498795834
140253.22543864753
145317.3827873593
150060.1203778465
154360.83879828677
158151.08070280563
161409.8961674952
164152.35853205298
102525.77234329954
103168.64327635143
104059.21980282056
105260.68088737116
106844.40439477234
108883.71097893575
111444.23151003594
114570.93188805143
118273.22468235774
122513.11249333012
127198.7177810381
132187.4733352765
137302.02203622053
142352.259873547
147161.98230281338
151589.32041616907
155538.99817612852
158960.62435023743
161836.06355024836
103049.00266445974
103799.14226124165
104830.41219496453
106206.95195992578
107997.99413490764
110270.11463575845
113076.08438704899
116441.42846373633
120351.62558216989
124742.08213245585
129497.42638280866
134460.62392876943
139450.03860485356
144284.15145841188
148804.6075644773
152890.69741910242
156463.89907968676
159470.2018314185
103655.99020049974
104523.3411667372
105706.15834022671
107267.46820782947
109271.80973859562
111775.88645653334
114816.50331145237
118397.88884025416
122480.42561960696
126975.05237741399
131747.73159321197
136630.60812279637
141443.91143227505
146018.07225725552
150211.8659320047
153917.71323529398
157047.36700649696
104353.78368795532
105347.32224652193
106690.76548269099
108443.64969195156
110662.89428297005
113392.45828339066
116650.61150259609
120418.53714206287
124632.06997936031
129180.76623927447
133914.66490492772
138661.54394733225
143246.7262366432
147512.59083959405
151326.31259713782
154565.41322238484
105148.5122247097
106275.7804197051
107786.53148808827
109734.2070725087
112165.20310608932
115107.55530774027
118559.09144989087
122477.25856267831
126774.71620735989
131321.97417256498
135958.411640115
140510.75138735745
144809.75780349018
148700.60380188923
152029.58117166438
106045.00703199703
107311.51728464538
108993.24457912665
111134.51605648974
113768.26408296276
116904.08638356444
120517.87554305542
124543.04675646855
128871.209792281
133357.09043947302
137832.6843270606
142122.8068579884
146056.46659516933
149450.37984208853
107046.34634357649
108454.9797277135
110307.3772451692
112635.90172177792
115457.08783780958
118759.95808456112
122497.03590432781
126578.97333199086
130878.02579206743
135235.17422042077
139475.06166941635
143413.63933438747
146843.46970494947
108153.27180972224
109703.61515492348
111722.01154892673
114225.63256269204
117211.69094061902
120647.09760377905
124460.42498713135
128540.58631536017
132741.07036350496
136889.73087251149
140794.29984532442
144228.48579747207
109363.75083767169
111051.28802198294
113225.451166458
115885.0065199254
119005.70793385283
122530.42891134346
126363.66357718935
130372.3718925746
134390.40099553965
138222.7868625334
141627.84038379998
110672.15148237525
112487.57784813315
114800.92124661464
117589.63242880702
120805.48394583355
124365.89358683157
128150.32084592688
132001.4893399699
135723.92691896003
139065.88648733209
112068.65448742511
113996.7894032655
116425.30044617054
119307.21119730583
122567.88903115565
126097.01081745928
129745.885103637
133322.04289808284
136567.28480808955
113538.20106871639
115556.93627073642
118067.75109901051
120995.73194039399
124236.710379791
127648.74640786633
131042.76785587863
134157.9622257833
115059.42887284713
117138.2825099902
119687.36171189854
122600.3084296565
125737.339819455
128912.8564135655
131864.16255897947
116603.36833918869
118701.25760221892
121230.7615341599
124046.9375934419
126962.55911472306
129713.84446325312
118131.20165587198
120193.21839375996
122624.85339502331
125229.44332395511
127738.85544649666
119591.05129646581
121542.79248262783
123765.79388099791
125978.96995656494
120912.47624533548
122648.04619233643
124488.45196673139
121994.78861655672
123347.62372969839
122679.67430977011
SCALARS T float 1
LOOKUP_TABLE default
300.1218450754421
300.12152838151013
300.1722622490215
300.1194543571579
300.172109421967
300.246236727565
300.1159066212341
300.16920223239583
300.2463725300967
300.35526639644814
300.1111544742211
300.16405337013316
300.24209716639035
300.3558697406857
300.5168616831703
300.10546926728495
300.15712084614995
300.23430845693133
300.3492805249269
300.5181845363338
300.75810152467966
300.09911847911263
300.1488417851032
300.22380646864104
300.3370784882951
300.5075566881275
300.7604167667016
301.121760106216
300.09235398651543
300.13963009019557
300.21133270778773
300.3206903465961
300.48783506405954
300.74246387071526
301.1249925356122
301.67748149170535
300.0854014884467
300.12986359383086
300.19756274852926
300.30140972680215
300.46162572233334
300.70962818214525
301.09309828641307
301.6796415662497
302.5440155084294
300.07845380652327
300.1198723982278
300.1830892501529
300.280370060945
300.43122824041654
300.66680041067184
301.03676896401026
301.6196633542833
302.53511716522075
303.938672210071
300.0716682945518
300.10993226458464
300.1684098512944
300.2585202083417
300.39856471541714
300.61811271182916
300.96540300127805
301.5199988568138
302.41493471751284
303.8774771761403
306.3036623625643
300.06516753403287
300.100263509522
300.15392477933676
300.2366198550705
300.36516020370806
300.5668203409432
300.8864316634186
301.39896407617823
302.2330371599373
303.6201092460302
306.02535903757774
310.67722276953674
300.0590424065048
300.0910342251686
300.1399415713512
300.2152482668116
300.3321627820838
300.51533721104806
300.8052723900001
301.2696993027666
302.02480378615167
303.27873628351426
305.4399969395847
309.50415168585715
319.8951905914467
300.05335639177804
300.0823661496715
300.1266852226605
300.19482719498217
300.30039565481786
300.4653534071079
300.7256104702783
301.14082530302016
301.8122697904919
302.9175942337993
304.7880090120675
308.12625530979557
314.89487843983505
327.9144612971834
300.0481504229746
300.07434189698756
300.11431090498587
300.17564616599174
300.2704132683642
300.4179806096586
300.6497921736078
301.0175866256188
301.6079481950451
302.56910487054154
304.16409865871066
306.89127985036674
311.80042892905624
320.65274977895604
333.94676155717366
300.0434477934361
300.06701242651894
300.1029170774391
300.1578886968998
300.2425616861553
300.37389406854555
300.57918934761466
300.902894003238
301.4182766339086
302.2478910494621
303.6005219356061
305.8408355898727
309.61853932848635
316.034339952157
325.93819500153256
338.704473322972
300.039258706636
300.0604044438339
300.0925580168249
300.14165702433553
300.2170305696479
300.3334498820343
300.51449382371226
300.79812802000373
301.2460321623193
301.9592692281829
303.1045488765385
304.95720348802547
307.96228726483923
312.8552593721181
320.3723921840865
330.5831323381852
342.54293828753987
300.03558441382546
300.05452687107606
300.08325524445445
300.1269925756548
300.1938946198575
300.2967821625933
300.4559456807417
300.7037097925922
301.091884231839
301.70385630842924
302.6737411415875
304.2147618418694
306.6527733568733
310.5140953195679
316.382429877564
324.5345922310469
334.60847184845693
345.6706326516687
300.0324209565364
300.04937673875264
300.0750072340863