# vtk DataFile Version 2.0
JuliaCFD
ASCII
DATASET UNSTRUCTURED_GRID

POINTS 1900 float
0.0 0.0 0.005
0.0 0.0416667 0.005
0.0 0.0833333 0.005
0.0 0.125 0.005
0.0 0.166667 0.005
0.0 0.208333 0.005
0.0 0.25 0.005
0.0 0.291667 0.005
0.0 0.333333 0.005
0.0 0.375 0.005
0.0 0.416667 0.005
0.0 0.458333 0.005
0.0 0.5 0.005
0.0 0.541667 0.005
0.0 0.583333 0.005
0.0 0.625 0.005
0.0 0.666667 0.005
0.0 0.708333 0.005
0.0 0.75 0.005
0.0 0.791667 0.005
0.0 0.833333 0.005
0.0 0.875 0.005
0.0 0.916667 0.005
0.0 0.958333 0.005
0.0 1.0 0.005
0.0409575 0.0 0.005
0.0409401 0.0416667 0.005
0.0409227 0.0833333 0.005
0.0409054 0.125 0.005
0.040888 0.166667 0.005
0.0408706 0.208333 0.005
0.0408532 0.25 0.005
0.0408359 0.291667 0.005
0.0408185 0.333333 0.005
0.0408011 0.375 0.005
0.0407838 0.416667 0.005
0.0407664 0.458333 0.005
0.040749 0.5 0.005
0.0407316 0.541667 0.005
0.0407143 0.583333 0.005
0.0406969 0.625 0.005
0.0406795 0.666667 0.005
0.0406621 0.708333 0.005
0.0406448 0.75 0.005
0.0406274 0.791667 0.005
0.04061 0.833333 0.005
0.0405927 0.875 0.005
0.0405753 0.916667 0.005
0.0405579 0.958333 0.005
0.0405405 1.0 0.005
0.0819149 0.0 0.005
0.0818802 0.0416667 0.005
0.0818455 0.0833333 0.005
0.0818107 0.125 0.005
0.081776 0.166667 0.005
0.0817412 0.208333 0.005
0.0817065 0.25 0.005
0.0816717 0.291667 0.005
0.081637 0.333333 0.005
0.0816022 0.375 0.005
0.0815675 0.416667 0.005
0.0815328 0.458333 0.005
0.081498 0.5 0.005
0.0814633 0.541667 0.005
0.0814285 0.583333 0.005
0.0813938 0.625 0.005
0.081359 0.666667 0.005
0.0813243 0.708333 0.005
0.0812895 0.75 0.005
0.0812548 0.791667 0.005
0.0812201 0.833333 0.005
0.0811853 0.875 0.005
0.0811506 0.916667 0.005
0.0811158 0.958333 0.005
0.0810811 1.0 0.005
0.122872 0.0 0.005
0.12282 0.0416667 0.005
0.122768 0.0833333 0.005
0.122716 0.125 0.005
0.122664 0.166667 0.005
0.122612 0.208333 0.005
0.12256 0.25 0.005
0.122508 0.291667 0.005
0.122455 0.333333 0.005
0.122403 0.375 0.005
0.122351 0.416667 0.005
0.122299 0.458333 0.005
0.122247 0.5 0.005
0.122195 0.541667 0.005
0.122143 0.583333 0.005
0.122091 0.625 0.005
0.122039 0.666667 0.005
0.121986 0.708333 0.005
0.121934 0.75 0.005
0.121882 0.791667 0.005
0.12183 0.833333 0.005
0.121778 0.875 0.005
0.121726 0.916667 0.005
0.121674 0.958333 0.005
0.121622 1.0 0.005
0.16383 0.0 0.005
0.16376 0.0416667 0.005
0.163691 0.0833333 0.005
0.163621 0.125 0.005
0.163552 0.166667 0.005
0.163482 0.208333 0.005
0.163413 0.25 0.005
0.163343 0.291667 0.005
0.163274 0.333333 0.005
0.163204 0.375 0.005
0.163135 0.416667 0.005
0.163066 0.458333 0.005
0.162996 0.5 0.005
0.162927 0.541667 0.005
0.162857 0.583333 0.005
0.162788 0.625 0.005
0.162718 0.666667 0.005
0.162649 0.708333 0.005
0.162579 0.75 0.005
0.16251 0.791667 0.005
0.16244 0.833333 0.005
0.162371 0.875 0.005
0.162301 0.916667 0.005
0.162232 0.958333 0.005
0.162162 1.0 0.005
0.204787 0.0 0.005
0.2047 0.0416667 0.005
0.204614 0.0833333 0.005
0.204527 0.125 0.005
0.20444 0.166667 0.005
0.204353 0.208333 0.005
0.204266 0.25 0.005
0.204179 0.291667 0.005
0.204092 0.333333 0.005
0.204006 0.375 0.005
0.203919 0.416667 0.005
0.203832 0.458333 0.005
0.203745 0.5 0.005
0.203658 0.541667 0.005
0.203571 0.583333 0.005
0.203484 0.625 0.005
0.203398 0.666667 0.005
0.203311 0.708333 0.005
0.203224 0.75 0.005
0.203137 0.791667 0.005
0.20305 0.833333 0.005
0.202963 0.875 0.005
0.202876 0.916667 0.005
0.20279 0.958333 0.005
0.202703 1.0 0.005
0.245745 0.0 0.005
0.245641 0.0416667 0.005
0.245536 0.0833333 0.005
0.245432 0.125 0.005
0.245328 0.166667 0.005
0.245224 0.208333 0.005
0.245119 0.25 0.005
0.245015 0.291667 0.005
0.244911 0.333333 0.005
0.244807 0.375 0.005
0.244703 0.416667 0.005
0.244598 0.458333 0.005
0.244494 0.5 0.005
0.24439 0.541667 0.005
0.244286 0.583333 0.005
0.244181 0.625 0.005
0.244077 0.666667 0.005
0.243973 0.708333 0.005
0.243869 0.75 0.005
0.243764 0.791667 0.005
0.24366 0.833333 0.005
0.243556 0.875 0.005
0.243452 0.916667 0.005
0.243347 0.958333 0.005
0.243243 1.0 0.005
0.286702 0.0 0.005
0.286581 0.0416667 0.005
0.286459 0.0833333 0.005
0.286337 0.125 0.005
0.286216 0.166667 0.005
0.286094 0.208333 0.005
0.285973 0.25 0.005
0.285851 0.291667 0.005
0.285729 0.333333 0.005
0.285608 0.375 0.005
0.285486 0.416667 0.005
0.285365 0.458333 0.005
0.285243 0.5 0.005
0.285121 0.541667 0.005
0.285 0.583333 0.005
0.284878 0.625 0.005
0.284757 0.666667 0.005
0.284635 0.708333 0.005
0.284513 0.75 0.005
0.284392 0.791667 0.005
0.28427 0.833333 0.005
0.284149 0.875 0.005
0.284027 0.916667 0.005
0.283905 0.958333 0.005
0.283784 1.0 0.005
0.32766 0.0 0.005
0.327521 0.0416667 0.005
0.327382 0.0833333 0.005
0.327243 0.125 0.005
0.327104 0.166667 0.005
0.326965 0.208333 0.005
0.326826 0.25 0.005
0.326687 0.291667 0.005
0.326548 0.333333 0.005
0.326409 0.375 0.005
0.32627 0.416667 0.005
0.326131 0.458333 0.005
0.325992 0.5 0.005
0.325853 0.541667 0.005
0.325714 0.583333 0.005
0.325575 0.625 0.005
0.325436 0.666667 0.005
0.325297 0.708333 0.005
0.325158 0.75 0.005
0.325019 0.791667 0.005
0.32488 0.833333 0.005
0.324741 0.875 0.005
0.324602 0.916667 0.005
0.324463 0.958333 0.005
0.324324 1.0 0.005
0.368617 0.0 0.005
0.368461 0.0416667 0.005
0.368305 0.0833333 0.005
0.368148 0.125 0.005
0.367992 0.166667 0.005
0.367835 0.208333 0.005
0.367679 0.25 0.005
0.367523 0.291667 0.005
0.367366 0.333333 0.005
0.36721 0.375 0.005
0.367054 0.416667 0.005
0.366897 0.458333 0.005
0.366741 0.5 0.005
0.366585 0.541667 0.005
0.366428 0.583333 0.005
0.366272 0.625 0.005
0.366116 0.666667 0.005
0.365959 0.708333 0.005
0.365803 0.75 0.005
0.365647 0.791667 0.005
0.36549 0.833333 0.005
0.365334 0.875 0.005
0.365178 0.916667 0.005
0.365021 0.958333 0.005
0.364865 1.0 0.005
0.409575 0.0 0.005
0.409401 0.0416667 0.005
0.409227 0.0833333 0.005
0.409054 0.125 0.005
0.40888 0.166667 0.005
0.408706 0.208333 0.005
0.408532 0.25 0.005
0.408359 0.291667 0.005
0.408185 0.333333 0.005
0.408011 0.375 0.005
0.407838 0.416667 0.005
0.407664 0.458333 0.005
0.40749 0.5 0.005
0.407316 0.541667 0.005
0.407143 0.583333 0.005
0.406969 0.625 0.005
0.406795 0.666667 0.005
0.406621 0.708333 0.005
0.406448 0.75 0.005
0.406274 0.791667 0.005
0.4061 0.833333 0.005
0.405927 0.875 0.005
0.405753 0.916667 0.005
0.405579 0.958333 0.005
0.405405 1.0 0.005
0.450532 0.0 0.005
0.450341 0.0416667 0.005
0.45015 0.0833333 0.005
0.449959 0.125 0.005
0.449768 0.166667 0.005
0.449577 0.208333 0.005
0.449386 0.25 0.005
0.449195 0.291667 0.005
0.449003 0.333333 0.005
0.448812 0.375 0.005
0.448621 0.416667 0.005
0.44843 0.458333 0.005
0.448239 0.5 0.005
0.448048 0.541667 0.005
0.447857 0.583333 0.005
0.447666 0.625 0.005
0.447475 0.666667 0.005
0.447284 0.708333 0.005
0.447093 0.75 0.005
0.446901 0.791667 0.005
0.44671 0.833333 0.005
0.446519 0.875 0.005
0.446328 0.916667 0.005
0.446137 0.958333 0.005
0.445946 1.0 0.005
0.49149 0.0 0.005
0.491281 0.0416667 0.005
0.491073 0.0833333 0.005
0.490864 0.125 0.005
0.490656 0.166667 0.005
0.490447 0.208333 0.005
0.490239 0.25 0.005
0.49003 0.291667 0.005
0.489822 0.333333 0.005
0.489613 0.375 0.005
0.489405 0.416667 0.005
0.489197 0.458333 0.005
0.488988 0.5 0.005
0.48878 0.541667 0.005
0.488571 0.583333 0.005
0.488363 0.625 0.005
0.488154 0.666667 0.005
0.487946 0.708333 0.005
0.487737 0.75 0.005
0.487529 0.791667 0.005
0.48732 0.833333 0.005
0.487112 0.875 0.005
0.486903 0.916667 0.005
0.486695 0.958333 0.005
0.486486 1.0 0.005
0.531954 0.00563435 0.005
0.531749 0.0470663 0.005
0.531544 0.0884982 0.005
0.531338 0.12993 0.005
0.531133 0.171362 0.005
0.530928 0.212794 0.005
0.530722 0.254226 0.005
0.530517 0.295658 0.005
0.530312 0.33709 0.005
0.530107 0.378521 0.005
0.529901 0.419953 0.005
0.529696 0.461385 0.005
0.529491 0.502817 0.005
0.529285 0.544249 0.005
0.52908 0.585681 0.005
0.528875 0.627113 0.005
0.528669 0.668545 0.005
0.528464 0.709977 0.005
0.528259 0.751409 0.005
0.528054 0.79284 0.005
0.527848 0.834272 0.005
0.527643 0.875704 0.005
0.527438 0.917136 0.005
0.527232 0.958568 0.005
0.527027 1.0 0.005
0.572289 0.0127465 0.005
0.572093 0.0538821 0.005
0.571896 0.0950177 0.005
0.571699 0.136153 0.005
0.571502 0.177289 0.005
0.571306 0.218424 0.005
0.571109 0.25956 0.005
0.570912 0.300695 0.005
0.570715 0.341831 0.005
0.570519 0.382967 0.005
0.570322 0.424102 0.005
0.570125 0.465238 0.005
0.569928 0.506373 0.005
0.569732 0.547509 0.005
0.569535 0.588644 0.005
0.569338 0.62978 0.005
0.569142 0.670916 0.005
0.568945 0.712051 0.005
0.568748 0.753187 0.005
0.568551 0.794322 0.005
0.568355 0.835458 0.005
0.568158 0.876593 0.005
0.567961 0.917729 0.005
0.567764 0.958864 0.005
0.567568 1.0 0.005
0.612625 0.0198587 0.005
0.612436 0.0606979 0.005
0.612248 0.101537 0.005
0.61206 0.142376 0.005
0.611872 0.183216 0.005
0.611684 0.224055 0.005
0.611496 0.264894 0.005
0.611307 0.305733 0.005
0.611119 0.346572 0.005
0.610931 0.387412 0.005
0.610743 0.428251 0.005
0.610555 0.46909 0.005
0.610366 0.509929 0.005
0.610178 0.550769 0.005
0.60999 0.591608 0.005
0.609802 0.632447 0.005
0.609614 0.673286 0.005
0.609425 0.714125 0.005
0.609237 0.754965 0.005
0.609049 0.795804 0.005
0.608861 0.836643 0.005
0.608673 0.877482 0.005
0.608484 0.918322 0.005
0.608296 0.959161 0.005
0.608108 1.0 0.005
0.65296 0.0269708 0.005
0.65278 0.0675137 0.005
0.652601 0.108057 0.005
0.652421 0.148599 0.005
0.652241 0.189142 0.005
0.652062 0.229685 0.005
0.651882 0.270228 0.005
0.651702 0.310771 0.005
0.651523 0.351314 0.005
0.651343 0.391857 0.005
0.651164 0.4324 0.005
0.650984 0.472943 0.005
0.650804 0.513485 0.005
0.650625 0.554028 0.005
0.650445 0.594571 0.005
0.650265 0.635114 0.005
0.650086 0.675657 0.005
0.649906 0.7162 0.005
0.649726 0.756743 0.005
0.649547 0.797286 0.005
0.649367 0.837828 0.005
0.649188 0.878371 0.005
0.649008 0.918914 0.005
0.648828 0.959457 0.005
0.648649 1.0 0.005
0.693295 0.034083 0.005
0.693124 0.0743295 0.005
0.692953 0.114576 0.005
0.692782 0.154823 0.005
0.692611 0.195069 0.005
0.69244 0.235316 0.005
0.692269 0.275562 0.005
0.692098 0.315809 0.005
0.691926 0.356055 0.005
0.691755 0.396302 0.005
0.691584 0.436548 0.005
[...]
CELL_DATA 888
SCALARS P float 1
LOOKUP_TABLE default
100118.33072596426
100118.0021644409
100167.78992032357
100115.77454326922
100167.65950673862
100241.32949187362
100111.95818490922
100164.55239434623
100241.55869518057
100350.79134479101
100106.84883385335
100159.02858600656
100237.01526938
100351.63673387741
100514.03339127984
100100.74495039543
100151.58925550734
100228.6798599899
100344.69205338995
100515.91208974404
100758.3144469883
100093.94066496442
100142.7132475071
100217.42578287929
100331.68260084852
100504.84449852214
100761.84676426843
101126.08964385682
100086.71246408051
100132.8540249458
100204.06253698531
100314.16133641484
100483.9461398242
100743.4435910299
101131.91924182008
101685.76046274818
100079.30726381893
100122.42512237842
100189.32784683438
100293.53509883226
100456.04211414441
100708.95617729465
101099.80938617111
101693.33774743348
102554.15933373576
100071.93486730503
100111.78695856083
100173.86878335167
100271.03710601269
100423.62117509381
100663.65640631459
101041.30813552407
101633.9572211515
102556.13901003289
103950.89074740796
100064.76504910913
100101.23929964275
100158.22802269831
100247.70068695642
100388.76566387402
100611.99041772357
100966.47886221304
101531.70203464867
102438.31092217841
103909.38907287491
106352.76166506908
100057.92835376343
100091.01988375944
100142.84069261965
100224.35346255646
100353.13168905998
100557.46805730191
100883.26841210863
101406.06016176663
102253.58855848045
103655.96706405508
106096.26311231774
111009.91361824783
100051.51958267971
100081.3079110564
100128.03913978874
100201.62586574125
100317.96936828039
100502.70383423594
100797.49166181924
101271.0093980218
102039.47387760843
103310.63277649942
105505.06040109597
109749.15265443789
121990.68735217441
100045.60268039274
100072.23056597299
100114.06382747908
100179.97509543528
100284.17677852005
100449.53944959548
100713.13523057046
101135.77668399637
101819.33849443975
102941.53410173005
104840.10551811363
108284.56370979596
115755.0896625934
132140.87737987054
100040.21626274526
100063.87111318883
100101.07722945412
100159.71206246148
100252.35864265589
100399.1947688462
100632.76703801556
101006.04872377925
101606.58062227104
102583.02339892244
104201.71410899673
106993.19440990136
112212.92420158166
122457.97771600196
140049.87586905924
100035.37921022763
100056.27732225196
100089.17832973333
100141.02975936036
100222.89029786314
100352.41596449056
100557.91374748021
100885.05382509393
101408.25487114955
102250.81628019689
103623.3068702089
105905.7356504821
109838.01272517095
116881.79305671065
128844.52729294023
146419.77056749072
100031.09585866058
100049.4698329051
100078.41659931243
100124.03028201872
100195.97340910611
100309.59893901226
100489.36654493476
100774.39125356729
101227.5746691573
101950.95637785995
103112.4622366144
104994.86784442869
108085.3439882245
113284.52845384194
121813.68159698181
134627.76282785332
151625.62240971206
100027.36071612875
100043.44950990172
100068.8048249039
100108.74750549548
100171.6810001587
100270.89279945106
100427.42006542257
100674.6214335897
101065.5097218101
101684.5837908016
102667.02982063683
104229.91006482192
106719.63971378288
110741.43992376809
117126.67645618989
126683.39866424451
139758.8758665458
155896.76113761624
100024.16271264001
100038.20413159486
100060.330075942
100095.167704629
100149.99758091912
100236.27714903119
100372.03936991
100585.6564579721
100921.75355137495
101450.42226846374
102281.43321040997
103585.33924772489
105621.65925400841
108826.21535232308
113791.20929242064
121146.0966531265
131315.98542658752
144261.33584223673
159391.65390890712
100021.4889282017
100033.71428347372
100052.96305650265
100083.24517971343
100130.847820705
100205.6222650086
100322.98685506001
100507.03310427036
100795.30947712479
101246.09031703122
101949.15401699804
103040.83478655001
104722.49851876388
107323.87444890417
111287.8679246961
117106.34953423434
125176.66690956114
135621.64594320365
148178.43190621267
162229.88881933293
100019.32822981775
100029.95858940906
100046.66658198791
100072.91637789787
100114.1219221031
100178.7326882409
100279.90751672327
100438.08147547202
100684.85225356414
101068.7812030483
101663.73251790981
102580.08742137268
103977.82083989828
106114.94749700579
109335.9400248993
114034.68333299752
120563.82122185803
129101.95087255389
139559.28601014533
151558.1378551122
164506.67073824196
100017.67527897326
100026.91888359454
100041.40262158889
100064.1102761325
100099.69205286622
100155.38026899453
100242.38902969952
100378.03819165335
100588.93294134978
100915.62389195703
101419.18794887772
102189.8450216588
103356.80272183573
105126.42432175051
107774.20766016454
111623.17217501588
116984.83444372704
124058.74836183827
132843.92562690482
143114.8629593895
154447.99502291656
166301.17150565324
100016.53575503889
100024.5862868097
100037.13970962852
100056.75911334032
100087.4290982578
100135.32838694306
100210.00233610472
100326.12361731766
100506.10390052525
100783.87464550695
101210.1477761549
101859.19924963343
102836.6060932347
104309.85413716792
106503.39859330773
109686.53288508415
114135.40449492137
120057.02137103106
127507.49761516576
136352.8903140979
146290.15319588242
156893.77679150412
167681.33317704362
100015.93500795515
100022.96973441144
100033.86196306786
100050.80803668807
100077.2144776428
100118.35061513493
100182.3313949026
100281.58269561248
100434.99476650276
100671.01057112747
101031.8792345664
101579.09857792275
102399.66711878186
103630.91137903443
105457.78074652496
108107.15019060695
111823.90147715245
116814.84358552945
123176.93798169182
130846.0129551968
139598.91373911276
149097.08404400994
158939.28758822312
168706.75177267133
100022.11059535849
100031.58210009534
100046.22821777227
100068.95461182084
100104.2466964016
100158.99532871724
100243.71965969076
100374.34930402046
100574.76244377109
100880.25891130237
101341.99449456402
102032.11561453516
103063.9785406102
104591.18348368703
106805.87135364019
109924.57522108841
114148.24845908853
119602.29739106445
126280.69561085758
134027.1263939574
142565.9468983698
151552.89479666282
160625.73603321362
169427.49502744386
100030.36398800524
100043.03568597924
100062.59776540425
100092.86041275607
100139.66732589899
100211.91789644877
100323.04931042576
100493.13463216193
100751.73874635574
101141.5668879346
101722.75408977702
102589.33618695124
103869.51777714479
105726.42695464237
108350.67849652393
111932.79071080114
116615.82953189548
122441.26695547969
129315.17861911187
137017.348651831
145248.4538075843
153678.76440685624
161991.58811471064
169890.42313951268
100041.32422776452
100058.16144537623
100084.10256032346
100124.09387635566
100185.65832442917
100280.13140306126
100424.4035629355
100643.28564835478
100972.53694653018
101462.4746654565
102191.40784105977
103266.69111450603
104826.98062066005
107039.22126942036
110080.38907010038
114101.73549419783
119180.87747625222
125280.65843727616
132238.15868575266
139794.615688113
147648.46491751052
155497.72016666873
163074.0730965637
170132.45826743759
100055.77813504986
100077.98778184067
100112.12662235196
100164.54421485146
100244.79944633246
100367.11339512849
100552.33970089465
100830.49340428083
101243.81329866302
101857.6980071159
102762.2583319302
104075.39886447995
105942.59491555313
108525.47335429343
111975.99107395556
116396.63256498256
121798.34787688493
128075.75828810163
135016.95169809074
142345.98008168564
149773.71464265426
157034.58877283448
163904.76514427285
170190.79166986956
100074.69815661633
100103.77031062589
100148.336955549
100216.4488352723
100320.08003770428
100476.77644655251
100711.78053840074
101060.64093051496
101578.08958015757
102339.91372970336
103446.36862763962
105023.64051681268
107217.40938496917
110174.72741730706
114012.87883215917
118780.57752007815
124425.92403834978
130789.08267999854
137627.74266572308
144665.79271340655
151636.2143940686
158313.7748744856
164517.2318586188
170094.82935954648
100099.27047562804
100137.02161006849
100194.7114093034
100282.4122588926
100414.89207492371
100613.4065815615
100907.93264948843
101344.36772568824
101986.52305273693
102919.62801010924
104252.7715143022
106115.78815111393
108647.20668861318
111970.85883003651
116162.56345963417
121216.38885855899
127025.45506610203
133390.1105548957
140054.22999545682
146753.37641860262
153250.64331441294
159359.587114353
164938.74151638892
169876.56678224678
100130.92364054336
100179.53790459588
100253.56035114406
100365.41070315892
100532.99813613029
100781.62992552493
101149.84885997085
101691.43797198204
102478.83002238855
103606.05660090716
105187.83466914576
107352.03415093855
110222.72072379646
113893.24060046459
118394.31557251207
123668.34494779313
129563.55842776835
135855.05290675076
142286.5935562761
148613.85069235443
154633.7402950238
160196.89107510317
165198.55943587516
169557.88673990426
100171.35490783572
100233.42319586463
100327.5405420019
100468.78325982964
100678.5289504405
100989.15954919522
101446.03805296059
102110.70622689018
103064.01514606853
104406.618311962
106254.71099301432
108728.25998856482
111930.0602461359
115917.87347502126
120676.68715997301
126103.18140352372
132012.07674303433
138166.7363490741
144320.57179058433
150255.1832145257
155803.29276838055
160850.18344178144
165322.24704017848
169170.43667930758
100222.55585324927
100301.10986079133
100419.66429166179
100596.25373456693
100858.08604108226
101243.41723824093
101804.50324679962
102610.70827724853
103749.87837573963
105326.3275670115
107453.0478341053
110236.1338237322
113751.55124337
118018.60558970469
122978.84851630266
128491.22121008649
134348.26808579278
140312.4275589281
146155.8205923052
151689.30799174125
156779.134713574
161343.47212463347
165336.82422279712
168736.09089208586
100286.83538593289
100385.37787050765
100533.33361327324
100753.52556197753
101078.16827631608
101551.59041288895
102233.17579246593
103199.24675366504
104542.55213852924
106367.4804284903
108778.88094302884
111863.54627119875
115666.55352959633
120168.33836440033
125271.63101755278
130806.16790166944
136554.45437565062
142286.275387501
147796.85275488772
152929.1173877636
157581.10645509488
161700.37271048586
165268.38575318476
168286.66859904674
100366.8462978445
100489.40137264751
100673.551974986
100946.31975004487
101345.21450106482
101920.96022494335
102739.58470835607
103882.94491672225
105446.06212048867
107529.38577613144
110224.69492162514
113595.04313675678
117652.42589287146
122340.05878123008
127528.29587921345
133027.09003185926
138617.08654067107
144084.36954090797
149250.42994309746
153989.21533160176
158230.01549670778
161946.6293183286
165146.0033298718
167856.86651548542
100465.6370505186
100617.6776920753
100845.4173568
101180.4240108274
101665.8694479245
102358.64822880871
103330.51957007278
104666.93682093706
106462.04626691183
108808.18665590801
111779.70799865824
115412.60778717864
119685.33703214808
124507.77229906726
129724.4972060263
135135.86077734933
140528.22056158105
145707.93866383354
150526.00212993208
154886.46001337146
158747.06305873048
162107.87853749446
165001.0486389789
167498.91642607667
100587.42637593272
100774.85682462927
101054.1800479764
101461.89531356812
102046.77092335284
102871.32295226028
104011.66209494649
105554.461740801
107589.51609599768
110197.04840514569
113430.18443862692
117296.24313028566
121741.37986763296
126646.81055892701
131839.90285999494
137118.31860645828
142281.68118851157
147160.72709532562
151634.8389442762
155637.98430571312
159154.91551908958
162211.30844223
164871.85921652595
167271.74930439805
100736.60436521807
100965.78617482612
101305.3952916525
101796.89287736698
102494.33929462271
103464.9057990131
104787.27894019753
106546.59617954143
108824.75677416103
111686.13246189483
115160.04836378711
119224.39022974606
123796.54453578616
128734.92609023892
133856.7004014029
138964.55687913645
143876.0555668589
148448.33952011843
152589.23153656116
156261.26337769022
159474.97118508662
162282.61829619866
164793.75329272743
100917.79199689523
101195.62749968407
101604.7798495821
102191.49202357394
103014.48066836571
104144.26762269024
105659.95025589537
107642.08706521647
110161.31240855598
113263.04074795093
116951.26163394055
121175.79757118819
125828.4249804179
130751.90702769655
135760.30897139641
140667.03450283993
145311.2209062963
149576.95878394993
153400.97852095295
156771.69064526953
159722.63142121767
162335.26064164887
101135.92233828276
101469.75178123449
101958.06333468367
102651.4630792588
103612.3366321326
104912.919771431
106630.22413174072
108837.23627043949
111590.14726827528
114913.15363073502
118784.51242077822
123128.13243499737
127815.41446113118
132679.9423109372
137538.4525350771
142220.18109386656
146588.15668594925
150553.75001318843
154078.8742859117
157174.50706410548
159889.92945785643
101396.14944325364
101793.58835249068
102370.79694059852
103182.01217790329
104292.02516946734
105772.75544850026
107696.53896756785
110125.78796467923
113099.48922759165
116619.54240540597
120639.05875764796
125059.4222774324
129737.37492938829
134502.49536992185
139180.37008408387
143619.42766020683
147706.9217672711
151379.36929849072
154619.0869638288
157442.4299571016
101703.72604880398
102172.47034810463
102848.1331505659
103787.54834490015
105056.33544764848
106723.85262015474
108855.05578272819
111499.13205660738
114675.87596881611
118364.1220185872
122494.22228311666
126948.76249200142
131575.12708266592
136204.4220727598
140675.91455259695
144857.96990477561
148661.73222643544
152040.20784899703
154975.41479676773
102063.83239103516
102611.44437540793
103394.59731516044
104471.44441269715
105906.49182590217
107764.21886462098
110099.56350200073
112945.94274564889
116303.2543404146
120127.5383498648
124328.36644401842
128774.93369406876
133309.76964241793
137770.654858183
142012.4354181136
145923.0535896289
149428.3113405815
152474.25488923534
102481.42022542536
103115.04752923133
104013.872632646
105235.72370457723
106841.96875923098
108889.7067167103
111421.32216377926
114452.9753340845
117963.57594065905
121888.08487808106
126119.38176132778
130516.1313482616
134921.42742285045
139182.5325708629
143169.61157087778
146781.36444541943
149930.12284182725
102961.00633577109
103687.0874108445
104708.49098260602
106080.84856044673
107860.069831693
110093.61121187166
112809.22948423409
116004.3148965971
119637.16068042947
123624.13551075337
127843.40265405891
132148.67193090502
136386.0451945534
140412.4850514274
144104.18641147105
147340.7752224736
103506.43650919694
104330.41112471526
105479.63761266062
107005.51621148513
108956.23613090737
111367.03645016691
114249.50809076654
117581.59833748316
121301.9500203492
125309.98197077084
129473.47362197976
133643.67898240522
137669.63365654802
141408.80191071486
144712.0685515137
104120.67046042428
105046.61952572953
106326.9015397976
108006.32805182436
110123.05852143872
112698.10372960697
115725.60520223776
119163.60086447549
122932.60598570271
126917.47947500297
130978.05255517816
134961.35450383736
138712.32901647824
142055.6558378978
104805.53315581221
105835.83714459944
107247.76753725695
109077.35893980553
111350.41793886792
114071.97187170816
117217.32210941325
120725.41011804268
124499.58854756282
128411.31783444087
132311.39634414544
136035.59885715225
139388.51804978002
105561.38977825423
106696.35453749383
108237.78397808384
110210.39754902804
112625.27944134548
115470.12280938549
118700.60318203099
122236.99547507262
125965.20958395107
129742.84662297234
133401.51966083542
136731.51282322832
106386.95215483286
107624.33053835505
109289.54706810169
111393.45917204872
113930.64801393509
116869.58903397339
120145.80583199127
123659.91287944796
127278.52147746671
130834.636952615
134107.95460437422
107278.79376225479
108613.4292453949
110392.7084082962
112611.25873391976
115244.89012455674
118241.26111333162
121514.15123665133
124941.35644507334
128359.35233287216
131542.60273556603
108231.0656800538
109654.18033671018
111533.05373525842
113843.4127595939
116539.9252421255
119546.75289643233
122752.04916885635
125998.8142536618
129059.89665425531
109234.81144322743
110733.31705459402
112691.49434443582
115062.97279247403
117777.97677879334
120732.71027785816
123776.6898734942
126684.7930392177
110277.28218875188
111832.71267488044
113842.13777590742
116233.64945231285
118906.69736514981
121716.91198105551
124441.76831026081
111341.00520132805
112927.70877812683
114950.28656242994
117304.18529902291
119845.9231195342
122356.11852946704
112401.99264635381
113984.37422492
115965.89490908866
118196.27837749223
120456.00584032047
113427.06399143473
114954.51568518952
116813.55379377806
118776.23632431067
114369.01269937477
115765.01419638829
117364.37565179676
115156.1349300744
116291.45323191599
115667.37059434748
SCALARS T float 1
LOOKUP_TABLE default
300.1021364845701
300.101836041976
300.14523088378485
300.0998918078204
300.1450796584172
300.2096681435607
300.0965723998047
300.14234407513976
300.20977966034314
300.30628324167725
300.0921350525799
300.1375099241756
300.2057308886248
300.30682212310336
300.45171668641603
300.0868397247557
300.1310148919312
300.1983759882889
300.30053556523353
300.4529161847983
300.67190455208834
300.08094244640426
300.1232781989372
300.18848204169564
300.2889354513551
300.44270148403393
300.67401325632375
301.0081244806366
300.0746834904524
300.114696637322
300.1767622931779
300.27339612821856
300.42382522683636
300.6566415945761
301.01103794871796
301.528086640404
300.06827694660905
300.1056312575066
300.16386627090344
300.2551666765732
300.3988106341975
300.6250130320149
300.97999247442567
301.52978715104535
302.34812024235333
300.06190423204885
300.0963957216275
300.1503619304111
300.2353405185919
300.36988682191696
300.5838856481134
300.92542080420446
301.4711009476932
302.33861898267946
303.6827267318179
300.05571168612994
300.0872498794381
300.13672341126795
300.21482983153703
300.3389141547534
300.5372794454655
300.85650496251003
301.37404718757267
302.220483835246
303.62087847453614
305.97146229837546
300.0498114094314
300.0783988530854
300.1233287043838
300.19436044661535
300.3073629081751
300.48835417647894
300.7804967680819
301.25658235763296
302.0425251416254
303.3668452938106
305.6927951959182
310.25182123759146
300.0442844239694
300.06999639224483
300.11046450291855
300.1744806055415
300.27633256880557
300.4394423014802
300.702666523902
301.1315605873691
301.83952360854454
303.03143336071196
305.1128251818387
309.07928494101395
319.36542773544727
300.0391850183863
300.06215083443146
300.098336429652
300.1555836571573
300.2466031174473
300.3921644381201
300.6265798379059
301.00738030575343
301.6330695275847
302.6779163544743
304.46965599427
307.70939078774904
314.3653449878463
327.2785523880477
300.03454561639813
300.0549323667522
300.0870817689019
300.13793325665654
300.21869072075725
300.3475729694264
300.554485433775
300.88911424405325
301.43535164338005
302.33806208644893
303.8565840287351
306.486602832166
311.28008330211736
320.011623069097
333.20232964442937
300.03038166956077
300.0483805014328
300.07678255980596
300.12168945940095
300.19290742332714
300.30629219840745
300.48767517461056
300.7795398253001
301.2525708688573
302.0260481948658
303.30498852489063
305.45076319732703
309.11292848413314
315.3995323153967
325.180051455338
337.8472903298802
300.02669617426284
300.04251143247353
300.067478070785
300.10693323034576
300.16941259046285
300.26863431208596
300.4267748146227
300.67993315441646
301.087329489615
301.74688228909315
302.82156996605454
304.5830697705217
307.47473644528844
312.2350341336119
319.61428811211675
329.7023578311258
341.5679991882373
300.0234837581454
300.0373244616036
300.0591761350401
300.09368679236553
300.14825402324146
300.23469527019006
300.37196904144713
300.59063204262844
300.9401654124663
301.5009622120595
302.4035067354055
303.85719332481904
306.185169709909
309.91376921111964
315.6355958380911
323.64545593860754
333.59912982002544
344.57254941162165
300.0207343471837
300.0328078060015
300.05186275805704
300.08193189544824