# vtk DataFile Version 2.0
JuliaCFD
ASCII
DATASET UNSTRUCTURED_GRID

POINTS 1900 float
0.0 0.0 0.005
0.0 0.0416667 0.005
0.0 0.0833333 0.005
0.0 0.125 0.005
0.0 0.166667 0.005
0.0 0.208333 0.005
0.0 0.25 0.005
0.0 0.291667 0.005
0.0 0.333333 0.005
0.0 0.375 0.005
0.0 0.416667 0.005
0.0 0.458333 0.005
0.0 0.5 0.005
0.0 0.541667 0.005
0.0 0.583333 0.005
0.0 0.625 0.005
0.0 0.666667 0.005
0.0 0.708333 0.005
0.0 0.75 0.005
0.0 0.791667 0.005
0.0 0.833333 0.005
0.0 0.875 0.005
0.0 0.916667 0.005
0.0 0.958333 0.005
0.0 1.0 0.005
0.0409575 0.0 0.005
0.0409401 0.0416667 0.005
0.0409227 0.0833333 0.005
0.0409054 0.125 0.005
0.040888 0.166667 0.005
0.0408706 0.208333 0.005
0.0408532 0.25 0.005
0.0408359 0.291667 0.005
0.0408185 0.333333 0.005
0.0408011 0.375 0.005
0.0407838 0.416667 0.005
0.0407664 0.458333 0.005
0.040749 0.5 0.005
0.0407316 0.541667 0.005
0.0407143 0.583333 0.005
0.0406969 0.625 0.005
0.0406795 0.666667 0.005
0.0406621 0.708333 0.005
0.0406448 0.75 0.005
0.0406274 0.791667 0.005
0.04061 0.833333 0.005
0.0405927 0.875 0.005
0.0405753 0.916667 0.005
0.0405579 0.958333 0.005
0.0405405 1.0 0.005
0.0819149 0.0 0.005
0.0818802 0.0416667 0.005
0.0818455 0.0833333 0.005
0.0818107 0.125 0.005
0.081776 0.166667 0.005
0.0817412 0.208333 0.005
0.0817065 0.25 0.005
0.0816717 0.291667 0.005
0.081637 0.333333 0.005
0.0816022 0.375 0.005
0.0815675 0.416667 0.005
0.0815328 0.458333 0.005
0.081498 0.5 0.005
0.0814633 0.541667 0.005
0.0814285 0.583333 0.005
0.0813938 0.625 0.005
0.081359 0.666667 0.005
0.0813243 0.708333 0.005
0.0812895 0.75 0.005
0.0812548 0.791667 0.005
0.0812201 0.833333 0.005
0.0811853 0.875 0.005
0.0811506 0.916667 0.005
0.0811158 0.958333 0.005
0.0810811 1.0 0.005
0.122872 0.0 0.005
0.12282 0.0416667 0.005
0.122768 0.0833333 0.005
0.122716 0.125 0.005
0.122664 0.166667 0.005
0.122612 0.208333 0.005
0.12256 0.25 0.005
0.122508 0.291667 0.005
0.122455 0.333333 0.005
0.122403 0.375 0.005
0.122351 0.416667 0.005
0.122299 0.458333 0.005
0.122247 0.5 0.005
0.122195 0.541667 0.005
0.122143 0.583333 0.005
0.122091 0.625 0.005
0.122039 0.666667 0.005
0.121986 0.708333 0.005
0.121934 0.75 0.005
0.121882 0.791667 0.005
0.12183 0.833333 0.005
0.121778 0.875 0.005
0.121726 0.916667 0.005
0.121674 0.958333 0.005
0.121622 1.0 0.005
0.16383 0.0 0.005
0.16376 0.0416667 0.005
0.163691 0.0833333 0.005
0.163621 0.125 0.005
0.163552 0.166667 0.005
0.163482 0.208333 0.005
0.163413 0.25 0.005
0.163343 0.291667 0.005
0.163274 0.333333 0.005
0.163204 0.375 0.005
0.163135 0.416667 0.005
0.163066 0.458333 0.005
0.162996 0.5 0.005
0.162927 0.541667 0.005
0.162857 0.583333 0.005
0.162788 0.625 0.005
0.162718 0.666667 0.005
0.162649 0.708333 0.005
0.162579 0.75 0.005
0.16251 0.791667 0.005
0.16244 0.833333 0.005
0.162371 0.875 0.005
0.162301 0.916667 0.005
0.162232 0.958333 0.005
0.162162 1.0 0.005
0.204787 0.0 0.005
0.2047 0.0416667 0.005
0.204614 0.0833333 0.005
0.204527 0.125 0.005
0.20444 0.166667 0.005
0.204353 0.208333 0.005
0.204266 0.25 0.005
0.204179 0.291667 0.005
0.204092 0.333333 0.005
0.204006 0.375 0.005
0.203919 0.416667 0.005
0.203832 0.458333 0.005
0.203745 0.5 0.005
0.203658 0.541667 0.005
0.203571 0.583333 0.005
0.203484 0.625 0.005
0.203398 0.666667 0.005
0.203311 0.708333 0.005
0.203224 0.75 0.005
0.203137 0.791667 0.005
0.20305 0.833333 0.005
0.202963 0.875 0.005
0.202876 0.916667 0.005
0.20279 0.958333 0.005
0.202703 1.0 0.005
0.245745 0.0 0.005
0.245641 0.0416667 0.005
0.245536 0.0833333 0.005
0.245432 0.125 0.005
0.245328 0.166667 0.005
0.245224 0.208333 0.005
0.245119 0.25 0.005
0.245015 0.291667 0.005
0.244911 0.333333 0.005
0.244807 0.375 0.005
0.244703 0.416667 0.005
0.244598 0.458333 0.005
0.244494 0.5 0.005
0.24439 0.541667 0.005
0.244286 0.583333 0.005
0.244181 0.625 0.005
0.244077 0.666667 0.005
0.243973 0.708333 0.005
0.243869 0.75 0.005
0.243764 0.791667 0.005
0.24366 0.833333 0.005
0.243556 0.875 0.005
0.243452 0.916667 0.005
0.243347 0.958333 0.005
0.243243 1.0 0.005
0.286702 0.0 0.005
0.286581 0.0416667 0.005
0.286459 0.0833333 0.005
0.286337 0.125 0.005
0.286216 0.166667 0.005
0.286094 0.208333 0.005
0.285973 0.25 0.005
0.285851 0.291667 0.005
0.285729 0.333333 0.005
0.285608 0.375 0.005
0.285486 0.416667 0.005
0.285365 0.458333 0.005
0.285243 0.5 0.005
0.285121 0.541667 0.005
0.285 0.583333 0.005
0.284878 0.625 0.005
0.284757 0.666667 0.005
0.284635 0.708333 0.005
0.284513 0.75 0.005
0.284392 0.791667 0.005
0.28427 0.833333 0.005
0.284149 0.875 0.005
0.284027 0.916667 0.005
0.283905 0.958333 0.005
0.283784 1.0 0.005
0.32766 0.0 0.005
0.327521 0.0416667 0.005
0.327382 0.0833333 0.005
0.327243 0.125 0.005
0.327104 0.166667 0.005
0.326965 0.208333 0.005
0.326826 0.25 0.005
0.326687 0.291667 0.005
0.326548 0.333333 0.005
0.326409 0.375 0.005
0.32627 0.416667 0.005
0.326131 0.458333 0.005
0.325992 0.5 0.005
0.325853 0.541667 0.005
0.325714 0.583333 0.005
0.325575 0.625 0.005
0.325436 0.666667 0.005
0.325297 0.708333 0.005
0.325158 0.75 0.005
0.325019 0.791667 0.005
0.32488 0.833333 0.005
0.324741 0.875 0.005
0.324602 0.916667 0.005
0.324463 0.958333 0.005
0.324324 1.0 0.005
0.368617 0.0 0.005
0.368461 0.0416667 0.005
0.368305 0.0833333 0.005
0.368148 0.125 0.005
0.367992 0.166667 0.005
0.367835 0.208333 0.005
0.367679 0.25 0.005
0.367523 0.291667 0.005
0.367366 0.333333 0.005
0.36721 0.375 0.005
0.367054 0.416667 0.005
0.366897 0.458333 0.005
0.366741 0.5 0.005
0.366585 0.541667 0.005
0.366428 0.583333 0.005
0.366272 0.625 0.005
0.366116 0.666667 0.005
0.365959 0.708333 0.005
0.365803 0.75 0.005
0.365647 0.791667 0.005
0.36549 0.833333 0.005
0.365334 0.875 0.005
0.365178 0.916667 0.005
0.365021 0.958333 0.005
0.364865 1.0 0.005
0.409575 0.0 0.005
0.409401 0.0416667 0.005
0.409227 0.0833333 0.005
0.409054 0.125 0.005
0.40888 0.166667 0.005
0.408706 0.208333 0.005
0.408532 0.25 0.005
0.408359 0.291667 0.005
0.408185 0.333333 0.005
0.408011 0.375 0.005
0.407838 0.416667 0.005
0.407664 0.458333 0.005
0.40749 0.5 0.005
0.407316 0.541667 0.005
0.407143 0.583333 0.005
0.406969 0.625 0.005
0.406795 0.666667 0.005
0.406621 0.708333 0.005
0.406448 0.75 0.005
0.406274 0.791667 0.005
0.4061 0.833333 0.005
0.405927 0.875 0.005
0.405753 0.916667 0.005
0.405579 0.958333 0.005
0.405405 1.0 0.005
0.450532 0.0 0.005
0.450341 0.0416667 0.005
0.45015 0.0833333 0.005
0.449959 0.125 0.005
0.449768 0.166667 0.005
0.449577 0.208333 0.005
0.449386 0.25 0.005
0.449195 0.291667 0.005
0.449003 0.333333 0.005
0.448812 0.375 0.005
0.448621 0.416667 0.005
0.44843 0.458333 0.005
0.448239 0.5 0.005
0.448048 0.541667 0.005
0.447857 0.583333 0.005
0.447666 0.625 0.005
0.447475 0.666667 0.005
0.447284 0.708333 0.005
0.447093 0.75 0.005
0.446901 0.791667 0.005
0.44671 0.833333 0.005
0.446519 0.875 0.005
0.446328 0.916667 0.005
0.446137 0.958333 0.005
0.445946 1.0 0.005
0.49149 0.0 0.005
0.491281 0.0416667 0.005
0.491073 0.0833333 0.005
0.490864 0.125 0.005
0.490656 0.166667 0.005
0.490447 0.208333 0.005
0.490239 0.25 0.005
0.49003 0.291667 0.005
0.489822 0.333333 0.005
0.489613 0.375 0.005
0.489405 0.416667 0.005
0.489197 0.458333 0.005
0.488988 0.5 0.005
0.48878 0.541667 0.005
0.488571 0.583333 0.005
0.488363 0.625 0.005
0.488154 0.666667 0.005
0.487946 0.708333 0.005
0.487737 0.75 0.005
0.487529 0.791667 0.005
0.48732 0.833333 0.005
0.487112 0.875 0.005
0.486903 0.916667 0.005
0.486695 0.958333 0.005
0.486486 1.0 0.005
0.531954 0.00563435 0.005
0.531749 0.0470663 0.005
0.531544 0.0884982 0.005
0.531338 0.12993 0.005
0.531133 0.171362 0.005
0.530928 0.212794 0.005
0.530722 0.254226 0.005
0.530517 0.295658 0.005
0.530312 0.33709 0.005
0.530107 0.378521 0.005
0.529901 0.419953 0.005
0.529696 0.461385 0.005
0.529491 0.502817 0.005
0.529285 0.544249 0.005
0.52908 0.585681 0.005
0.528875 0.627113 0.005
0.528669 0.668545 0.005
0.528464 0.709977 0.005
0.528259 0.751409 0.005
0.528054 0.79284 0.005
0.527848 0.834272 0.005
0.527643 0.875704 0.005
0.527438 0.917136 0.005
0.527232 0.958568 0.005
0.527027 1.0 0.005
0.572289 0.0127465 0.005
0.572093 0.0538821 0.005
0.571896 0.0950177 0.005
0.571699 0.136153 0.005
0.571502 0.177289 0.005
0.571306 0.218424 0.005
0.571109 0.25956 0.005
0.570912 0.300695 0.005
0.570715 0.341831 0.005
0.570519 0.382967 0.005
0.570322 0.424102 0.005
0.570125 0.465238 0.005
0.569928 0.506373 0.005
0.569732 0.547509 0.005
0.569535 0.588644 0.005
0.569338 0.62978 0.005
0.569142 0.670916 0.005
0.568945 0.712051 0.005
0.568748 0.753187 0.005
0.568551 0.794322 0.005
0.568355 0.835458 0.005
0.568158 0.876593 0.005
0.567961 0.917729 0.005
0.567764 0.958864 0.005
0.567568 1.0 0.005
0.612625 0.0198587 0.005
0.612436 0.0606979 0.005
0.612248 0.101537 0.005
0.61206 0.142376 0.005
0.611872 0.183216 0.005
0.611684 0.224055 0.005
0.611496 0.264894 0.005
0.611307 0.305733 0.005
0.611119 0.346572 0.005
0.610931 0.387412 0.005
0.610743 0.428251 0.005
0.610555 0.46909 0.005
0.610366 0.509929 0.005
0.610178 0.550769 0.005
0.60999 0.591608 0.005
0.609802 0.632447 0.005
0.609614 0.673286 0.005
0.609425 0.714125 0.005
0.609237 0.754965 0.005
0.609049 0.795804 0.005
0.608861 0.836643 0.005
0.608673 0.877482 0.005
0.608484 0.918322 0.005
0.608296 0.959161 0.005
0.608108 1.0 0.005
0.65296 0.0269708 0.005
0.65278 0.0675137 0.005
0.652601 0.108057 0.005
0.652421 0.148599 0.005
0.652241 0.189142 0.005
0.652062 0.229685 0.005
0.651882 0.270228 0.005
0.651702 0.310771 0.005
0.651523 0.351314 0.005
0.651343 0.391857 0.005
0.651164 0.4324 0.005
0.650984 0.472943 0.005
0.650804 0.513485 0.005
0.650625 0.554028 0.005
0.650445 0.594571 0.005
0.650265 0.635114 0.005
0.650086 0.675657 0.005
0.649906 0.7162 0.005
0.649726 0.756743 0.005
0.649547 0.797286 0.005
0.649367 0.837828 0.005
0.649188 0.878371 0.005
0.649008 0.918914 0.005
0.648828 0.959457 0.005
0.648649 1.0 0.005
0.693295 0.034083 0.005
0.693124 0.0743295 0.005
0.692953 0.114576 0.005
0.692782 0.154823 0.005
0.692611 0.195069 0.005
0.69244 0.235316 0.005
0.692269 0.275562 0.005
0.692098 0.315809 0.005
0.691926 0.356055 0.005
0.691755 0.396302 0.005
0.691584 0.436548 0.005
[...]
CELL_DATA 888
SCALARS P float 1
LOOKUP_TABLE default
100108.67938626943
100108.35836287691
100154.58574470827
100106.20813998953
100154.45143375652
100223.51815467581
100102.5299248719
100151.44423627359
100223.7231247019
100327.01958587936
100097.61238802355
100146.10777258192
100219.30666334923
100327.80828063274
100482.5690122996
100091.74744279149
100138.9313165182
100211.2230283443
100321.02413674754
100484.34122489594
100716.94713657488
100085.22265212116
100130.3835164889
100200.32647581247
100308.35207806135
100473.47724605327
100720.29769598649
101072.00918557247
100078.30777791339
100120.90816032485
100187.41071164016
100291.31550354543
100453.03204101912
100702.15545732433
101077.5439263289
101615.40918881122
100071.24289589004
100110.9092095401
100173.19906225624
100271.29704105774
100425.78546396308
100668.28081166389
101045.7750622123
101622.52295863631
102463.05278979466
100064.23095465136
100100.7375356003
100158.32482506956
100249.50842731824
100394.18929277443
100623.87612510327
100988.11162080355
101563.6028716995
102464.32501035882
103833.38704192732
100057.43496550263
100090.68345502076
100143.31730422442
100226.96310014979
100360.29382918355
100573.3309797032
100914.50861819334
101462.51095452535
102347.15227243459
103790.86127652519
106201.68474560976
100050.97889595739
100080.97545909272
100128.59863519033
100204.46987325122
100325.72636653077
100520.1073809301
100832.82592965628
101338.56268995833
102164.07680178744
103538.44868942219
105943.91877668377
110815.57472093761
100044.95122770993
100071.78380163669
100114.48863010314
100182.64139297846
100291.71070725616
100466.77826852446
100748.80710752642
101205.6016450891
101952.32113404476
103195.49809886157
105354.43954468057
109554.24359762542
121736.97391328112
100039.40989399535
100063.2271056601
100101.21575604123
100161.91799594367
100259.12061148393
100415.14860835084
100666.3792726092
101072.74962091062
101735.0517896869
102829.70731756935
104693.00844153615
108092.92989367685
115507.15347450455
131822.10144693076
100034.3878410804
100055.38051491645
100088.93109412894
100142.59468619335
100228.53834582127
100366.40544542074
100588.05971715496
100945.60940526538
101525.51538514055
102475.1262779531
104059.26147776512
106806.83587061748
111971.56077540312
122149.01648756274
139663.58589500224
100029.898638105
100048.28416145942
100077.72288981435
100124.84953290947
100200.31842306578
100321.2653004512
100515.33129415475
100827.3408353128
101330.65168088849
102147.26221273965
103486.21120356211
105725.83999789481
109604.43625872419
116582.31888443074
128468.426651282
145963.00381687097
100025.94167083986
100041.95154250154
100067.63055967582
100108.77066916288
100174.64319499362
100280.09718244101
100448.94676853069
100719.48603365771
101153.58437178246
101852.00886046783
102981.17254110349
104822.17183391555
107860.52868622872
112995.35589801018
121448.53297602273
134179.2627461832
151095.45767008094
100022.5068479443
100036.37688329499
100058.65752507483
100094.37899829487
100151.56787120123
100243.0256579896
100389.16655543681
100622.5565615162
100995.2106445504
101590.39352109708
102541.81289047086
104064.86159072483
106504.2593270588
110463.45502614051
116773.69680935083
126245.82793090261
139233.36135130902
155290.5674026249
100019.57882099166
100031.54180543711
100050.78217115927
100081.64875382694
100131.06047376824
100210.00791054693
100335.92512492856
100536.42211893582
100855.16371770164
101361.05152165283
102162.4218370411
103428.18438510584
105416.13067903492
108560.10221656767
113451.56324322167
120721.59748369761
130799.93599533381
143654.79199912853
158707.23128900665
100017.14066563884
100027.42117815222
100043.96717444004
100070.52312589789
100113.03051511927
100180.89367735977
100288.95720839236
100460.58198201355
100732.39557221722
101161.52928919432
101836.3774323771
102891.66949488592
104527.03373479532
107070.07377427195
110962.46337581985
116696.73566162626
124673.53373192705
135021.8149473009
147487.51021508296
161465.56048410235
100015.17742879485
100023.98827237371
100038.16788847302
100060.92826736644
100097.35417472149
100155.46869235151
100247.88266923885
100394.33280160272
100625.53619937286
100988.9595594025
101557.13673948021
102438.89097187543
103792.47054122387
105873.67701982717
109025.38245000894
113641.3402344419
120076.33208969003
128513.78512574143
138871.17549905844
150780.2286985486
163661.35505783808
100013.67996967153
100021.21978518438
100033.3392733037
100052.78361855033
100083.89073019782
100133.48751947025
100212.26625273442
100336.88110933443
100533.09711964197
100840.41929830868
101318.64956338287
102056.50252926329
103181.485922978
104897.71458500608
107478.82199999277
111247.06264217987
116515.0781607135
123486.07018987201
132165.16054367344
142334.84683765724
153581.30466863362
165374.42757500894
100012.64987555442
100019.10162807975
100029.4430592099
100046.01237334857
100072.49900601548
100114.69755444633
100181.65790257369
100287.41983464305
100453.59532949448
100713.11909487899
101115.48407919599
101733.51755174673
102671.13565970704
104093.5806816455
106223.26591418347
109328.23569589944
113684.89616811126
119502.7928322066
126843.08561692014
135578.9071480612
145415.58525845472
155937.35124418788
166673.3787105256
100012.1074863552
100017.63690407273
100026.45629000898
100040.55077776081
100063.04894211097
100098.85739890636
100155.62215058142
100245.16890424232
100385.62836218535
100604.49519837274
100942.85566278733
101460.81765010233
102243.7671814528
103426.81984664651
105192.78016246202
107766.91205099637
111393.64498315396
116281.3047522052
122530.82571600094
130084.25318834757
138726.11053594656
148126.3346036616
157892.88770869022
167618.50331571168
100016.85942732861
100024.38346564797
100036.36050486188
100055.43542462651
100085.75237911993
100133.75980581532
100209.40925327707
100327.91059185477
100512.24159808959
100796.59488818164
101230.79600573904
101885.43348022828
102871.70822320334
104341.02552591813
106483.65929909173
109515.12670325805
113636.99442590507
118977.57431676288
125536.14142573506
133163.4660604282
141591.84954457765
150485.19683858246
159490.17372628368
168260.70060400726
100023.27740069736
100033.44620246437
100049.59414877217
100075.21155217767
100115.726142948
100179.50215589888
100279.29642953834
100434.32878350104
100673.11184543262
101037.0808857718
101584.87139302536
102408.4348179154
103633.77304750409
105421.97702090138
107962.21247556718
111444.84589887029
116014.8275857368
121717.93566787438
128466.66502660484
136048.4138283754
144171.7383584103
152514.48952804462
160768.62285659908
168647.5921980694
100031.88598606439
100045.52713474755
100067.12926258659
100101.24911098077
100154.90670086883
100238.796187305
100369.00133321408
100569.33493391445
100874.34639506188
101332.91469134587
102021.34524780813
103044.8140768417
104539.83786515637
106671.59171024933
109616.27498713769
113526.09526707024
118481.93824218477
124452.25101477468
131281.35774196865
138718.28721347864
146468.9156102923
154238.41291381815
161766.40696136592
168816.91794994654
100043.34523147778
100061.49946466195
100090.15910648677
100135.20297496881
100205.58733768594
100314.77258193938
100482.66777292344
100738.13787295604
101122.04610634729
101697.8750895559
102553.60453457014
103804.94921519994
105595.39005349307
108085.28372824486
111426.73274921175
115724.47284366061
120994.1113672664
127136.96531923412
133948.85049627125
141161.45422830485
148492.40851279654
155682.88293919736
162516.01970548055
168806.58828461595
100058.47498854129
100082.43367007653
100120.12532108372
100179.03672865161
100270.4269388477
100410.95014970707
100624.75811911654
100946.08732040047
101427.84584156406
102143.75331329393
103191.86534036945
104696.22904566086
106800.87351236554
109652.32149984145
113369.15653576306
118003.73428393106
123510.10047514323
129735.91837312529
136446.73107335647
143373.58787253354
150255.53123732138
156873.3791936765
163051.94507429292
168646.85248138578
100078.27942101545
100109.62345636396
100158.74207391682
100235.03826760183
100352.44088484533
100531.17404217435
100799.96654624744
101202.98522305423
101802.04999380081
102680.21258390744
103944.33730118115
105722.33256222392
108151.64747671246
111356.5664408813
115415.52926356977
120327.63805824606
125993.03874446313
132220.04102051642
138760.15859880843
145355.3426809521
151774.182010596
157835.2478732818
163402.3330912658
168370.4330635031
100103.9718284696
100144.60878126927
100208.01430994892
100305.82189150657
100454.96811093754
100679.57709647645
101016.5545869141
101517.77716858497
102253.54563900077
103315.63038306555
104816.63116216165
106882.90733629269
109638.25291383539
113177.66394228966
117535.89186457836
122661.6540380284
128411.00259327675
134567.09288862
140880.830897428
147113.3108204489
153066.28472506625
158594.37104691257
163597.32942573266
168000.10182423278
100136.99735006804
100189.19641933896
100270.24876748165
100394.31783811585
100581.66322997972
100863.12467874844
101282.24851118929
101898.5080638103
102790.49483574156
104056.62482968271
105811.25744241559
108173.48737428368
111246.87992040109
115092.19708150493
119699.8556110896
124973.93450899748
130737.42886084534
136761.51374092576
142805.8410075051
148656.7917337626
154150.76925428133
159176.23614854846
163663.39992643395
167568.3629893811
100179.05489471732
100245.47737541923
100348.06075751196
100503.78857084818
100738.420214028
101088.49026678628
101604.2634092467
102352.87611328946
103419.8722564488
104907.49604400207
106927.38714995986
109585.6412923742
112960.23416943366
117074.90168055242
121877.91370651672
127236.40187573986
132951.27046674353
138792.2076589196
144536.49491402498
149999.01480583433
155048.5896465161
159605.84178681448
163628.49034219637
167098.12061322216
100232.1168793175
100315.84329178133
100444.40301074208
100639.26468271605
100931.02098324311
101362.0970013905
101989.70510519455
102887.84572043322
104147.04192591856
105869.95738082245
108160.79436886912
111107.4428052584
114758.37444527222
119099.86627014731
124042.45028475352
129424.49979019539
135036.59895838227
140654.8202815051
146078.74793356075
151154.12544989103
155780.68167151453
159907.79181509966
163519.7154574393
166622.2383803333
100298.45254598612
100403.0276893463
100563.63500755453
100805.77906819091
101165.16432313122
101690.41766622594
102445.2636871453
103509.23928045064
104975.36507083492
106942.91699816722
109503.96252111658
112723.9368229149
116619.67757030953
121141.54071582516
126168.4719910648
131519.136962434
136981.63705415928
142347.1949862173
147440.7777244829
152137.9497373366
156368.9565940515
160108.91678256678
163367.23201725984
166176.55167776576
100380.67462982607
100510.90608037567
100710.19158925457
101008.40266378464
101446.70546637944
102079.74012249746
102976.90521451579
104221.46258544242
105905.96607476774
108122.35358032287
110946.41024893368
114417.93289112748
118521.64103708931
123175.63473402397
128233.53630978143
133504.09271404383
138780.12837281585
143872.1550881481
148633.40872770437
152968.57964457822
156835.7572705464
160235.9672528051
163203.4527236752
165813.63842792946
100482.39228601109
100643.48372539012
100888.62644436047
101252.42263190138
101781.46084713413
102535.90131510442
103589.54249809583
105027.15129008297
106937.54720071855
109401.54299645526
112475.03201923252
116170.59835170943
120441.97529598094
125179.3932152146
130219.31503896468
135367.14851706653
140427.7452017318
145235.0077811475
149669.2938659724
153664.40422863563
157204.95045040583
160317.20631876308
163067.1477998248
165590.13177049364
100607.3625960684
100804.9275227563
101103.74285645051
101543.18985008074
102175.01732299753
103064.02559174178
104286.769860188
105926.95351495859
108066.3365487409
110771.08091275988
114074.72667638426
117961.86830895473
122358.54921680332
127132.64259904997
132110.08620042488
137100.27272340705
141924.873152266
146442.9181438966
150562.1232950704
154244.19151622002
157499.06465172986
160378.77476481767
162991.3123760943
100759.5348293618
100999.66290594151
101360.46447450762
101885.95330389946
102632.46945224487
103668.26097349955
105070.64007018191
106919.41331853687
109286.12515901163
112219.3511718867
115728.7880108385
119772.27853084492
124251.05648985636
129017.3844602582
133893.41413141295
138697.94445726517
143273.15581221407
147503.6351048083
151325.1162819384
154724.56428662615
157734.03171313295
160432.003682317
100943.11527637465
101232.27975760246
101663.70337594622
102285.6644468387
103158.20382267858
104351.51942604559
105941.37729596136
108000.90720204033
110588.46287583982
113732.88134992786
117419.58164070873
121581.5873240588
126100.1871831965
130818.12454705399
135559.13572230047
140156.65072951504
144475.3514226728
148425.93182216046
151968.43093556142
155111.41794970763
157900.0006366434
101162.48578288092
101507.39971884992
102018.192909042
102746.75513229368
103755.68269921969
105115.26896724608
106897.34742610827
109165.58458219345
111962.54482448015
115296.2810596249
119128.38920216823
123370.16175628778
127888.27037108992
132520.74071096294
137098.77966211934
141473.85343064473
145533.34375587988
149211.9908204831
152489.08420521734
155375.8924858701
101422.09689489238
101829.5431684204
102428.3010462202
103272.94294428105
104427.19304555476
105959.38940897289
107934.94688117507
110405.60867164438
113396.2627286397
116893.3704675626
120836.86181567128
125119.6660335725
129598.74071813411
134112.4989169552
138504.57349041916
142644.82128517673
146443.11452801197
149849.2813665407
152839.63761119044
101726.3212112963
102202.96800990342
102897.83926782092
103867.03937897028
105173.66337836868
106881.98122902596
109048.5641539003
111710.84512877556
114875.3474438383
118507.08471142949
122526.00637755594
126811.67840983493
131215.4641248113
135581.0062575129
139766.24752150202
143658.85563839076
147181.73825108522
150275.00301602716
102079.32298147769
102631.48594077353
103429.89137709103
104530.69642787788
105994.53664446255
107879.33425577218
110230.46905876299
113069.66769739811
116383.96259973626
120118.39485265972
124176.65173831469
128427.41137921182
132721.360078743
136910.39002146124
140865.8787923982
144484.36970386858
147672.41913371597
102484.88789585177
103118.28467128857
104026.56369067811
105264.25142665353
106887.42145775596
108945.59131641733
111471.02270071629
114468.25736499342
117905.06757317376
121708.6994420776
125768.17335867924
129946.38145262959
134095.618869171
138075.87606459326
141762.36419388998
145029.54978365797
102946.23325737311
103665.7480488722
104688.84266069773
106066.58380549357
107848.44208047121
110073.15284666732
112758.41052354041
115890.84352971855
119419.70115147305
123255.72653680998
127277.16151486574
131343.1343626338
135307.51781611567
139028.41703907895
142352.63475508188
103465.84047124442
104275.2331172127
105416.41317154204
106934.86286113439
108871.35038893812
111251.96591740087
114078.57925584842
117319.30753362244
120906.09090825742
124735.14173935511
128675.833728695
132581.74794593587
136300.4346579683
139654.0073582925
104045.2646084299
104946.90194434802
106207.2326312217
107864.18932454925
109947.71029198598
112469.5820082041
115414.4197311951
118732.39720192713
122338.75566471236
126115.8727203071
129922.79065801385
133600.0143263552
136951.4774401504
104684.88081734601
105679.44138951009
107057.75221204087
108847.88790656974
111066.75527088865
113710.50635023402
116745.57981929574
120104.33948707621
123684.63582050263
127353.93954379078
130950.6846973712
134266.73538286416
105383.75311656976
106469.83887055969
107962.00862304724
109876.14681345648
112214.43972775816
114955.49034028176
118046.82004028955
121401.62513661517
124897.88394316129
128377.36473859934
131623.80546577694
106139.24271171632
107313.10867706491
108911.70524564302
110936.52591596698
113372.82244764996
116179.93102092373
119284.55961232554
122577.08091644244
125904.51015889415
129047.92717222172
106946.8026927438
108201.75031191694
109895.39372113565
112012.295788207
114518.38467058637
117350.85032747546
120411.32393689966
123554.94531303426
126563.70518836657
107799.39679686661
109125.18835568144
110897.5776412618
113081.08699664386
115618.92149274265
118421.3865799288
121351.58042222381
124195.87836498997
108686.92441965212
110068.8350305477
111896.93605529433
114112.26991812406
116628.86179926347
119317.13716649413
121968.27384701371
109595.40935338962
111012.5695251866
112864.4786663139
115061.59314465689
117476.35570420594
119905.06339040065
110505.37450897353
111928.19839307449
113757.31945021174
115859.50346158163
118032.76225641648
111389.3796277695
112774.76344067177
114509.11371990324
116383.91759299392
112207.49171513024
113488.41586366184
115003.07061971803
112897.37289633523
113957.17683815889
113350.56434815426
SCALARS T float 1
LOOKUP_TABLE default
300.0938092832363
300.0935163225579
300.1338123337296
300.09164030750946
300.13365975701726
300.1942185211872
300.0884419693641
300.1310133940511
300.1943131508694
300.28558024631536
300.0841723402046
300.12634485217836
300.19038005964626
300.28607813058363
300.4241693334179
300.07908559148564
300.12008134752557
300.1832505023434
300.2799423122863
300.42529244739785
300.6354410761149
300.07343193830104
300.1126330224028
300.1736746780597
300.26864945887235
300.415277423684
300.637423222035
300.96004908239115
300.06744571398593
300.1043880227875
300.1623516241876
300.25354745518604
300.39682366173486
300.6203232296946
300.9627673320354
301.46490535880525
300.06133499302035
300.0956988656146
300.1499178470268
300.2358632975223
300.37241327687684
300.58928370207553
300.93210522042597
301.4663216498783
302.2653524578877
300.0552751957065
300.0868707511814
300.13692888257424
300.21667069010243
300.3442410603189
300.5489983493883
300.87836965015015
301.408200643208
302.2554649170646
303.5747672091283
300.0494067749908
300.07815521179305
300.12384690485237
300.1968636291911
300.31413745528323
300.5034336045784
300.81064014468376
301.31235742660596
302.1382014816416
303.512452379218
305.8316823004838
300.0438361350446
300.0697492878084
300.11103838838864
300.1771509330187
300.2835460035913
300.4557037200059
300.7360844922863
301.1965822609332
301.96202561417596
303.25980972342063
305.5525843054627
310.0734156292016
300.0386388482817
300.0617989611308
300.09877902201447
300.15806495720847
300.2535421140345
300.40810201228857
300.65990402958454
301.07359766608056
301.761447037678
302.92703892967864
304.9748274012412
308.900696733559
319.1441666066044
300.03386403937566
300.05440517903764
300.0872639903866
300.13998418427514
300.22488389173463
300.3622151363828
300.58560764259215
300.95169929391255
301.55785435412184
302.5769848548552
304.33549673429434
307.53403877507316
314.14359109201644
327.01424650737755
300.02953927709547
300.0476311536115
300.0766207419374
300.1231584118596
300.1980676451477
300.3190657894329
300.5153969061814
300.8358793258728
301.3632879025358
302.2411215544008
303.72726687258455
306.3164811965095
311.0619549828434
319.7443490908993
332.89470122057236
300.0256754763951
300.0415098643174
300.0669221052967
300.10773482831604
300.1733872906241
300.2792520412161
300.45052398677564
300.7288512864607
301.18383838277754
301.93342391446214
303.18112414882114
305.2870835373326
308.9010541271332
315.13454606016575
324.86569821701795
337.4954764119872
300.02227141389585
300.0360514156207
300.05819877091955
300.09378246168563
300.15098560418375
300.2430627618664
300.3915807797932
300.63183968862455
301.02202463243736
301.65875600943394
302.70350944086664
304.42655638003293
307.27075777462136
311.9761637596898
319.2994452159674
329.3394704494935
341.1710219248911
300.019317801696
300.0312494625043
300.05045061462965
300.0813125204792
300.1308952526709
300.2105729943022
300.3387225665072
300.5451396883845
300.8783196210299
301.4174109761157
302.2914225080835
303.70824687864786
305.99008229172983
309.6635445364436
315.3253820564961
323.27842467624646
333.18635293350866
344.1294843401362
300.016800926265
300.02708699471833
300.04365628535896
300.07029658159433