# vtk DataFile Version 2.0
JuliaCFD
ASCII
DATASET UNSTRUCTURED_GRID

POINTS 1900 float
0.0 0.0 0.005
0.0 0.0416667 0.005
0.0 0.0833333 0.005
0.0 0.125 0.005
0.0 0.166667 0.005
0.0 0.208333 0.005
0.0 0.25 0.005
0.0 0.291667 0.005
0.0 0.333333 0.005
0.0 0.375 0.005
0.0 0.416667 0.005
0.0 0.458333 0.005
0.0 0.5 0.005
0.0 0.541667 0.005
0.0 0.583333 0.005
0.0 0.625 0.005
0.0 0.666667 0.005
0.0 0.708333 0.005
0.0 0.75 0.005
0.0 0.791667 0.005
0.0 0.833333 0.005
0.0 0.875 0.005
0.0 0.916667 0.005
0.0 0.958333 0.005
0.0 1.0 0.005
0.0409575 0.0 0.005
0.0409401 0.0416667 0.005
0.0409227 0.0833333 0.005
0.0409054 0.125 0.005
0.040888 0.166667 0.005
0.0408706 0.208333 0.005
0.0408532 0.25 0.005
0.0408359 0.291667 0.005
0.0408185 0.333333 0.005
0.0408011 0.375 0.005
0.0407838 0.416667 0.005
0.0407664 0.458333 0.005
0.040749 0.5 0.005
0.0407316 0.541667 0.005
0.0407143 0.583333 0.005
0.0406969 0.625 0.005
0.0406795 0.666667 0.005
0.0406621 0.708333 0.005
0.0406448 0.75 0.005
0.0406274 0.791667 0.005
0.04061 0.833333 0.005
0.0405927 0.875 0.005
0.0405753 0.916667 0.005
0.0405579 0.958333 0.005
0.0405405 1.0 0.005
0.0819149 0.0 0.005
0.0818802 0.0416667 0.005
0.0818455 0.0833333 0.005
0.0818107 0.125 0.005
0.081776 0.166667 0.005
0.0817412 0.208333 0.005
0.0817065 0.25 0.005
0.0816717 0.291667 0.005
0.081637 0.333333 0.005
0.0816022 0.375 0.005
0.0815675 0.416667 0.005
0.0815328 0.458333 0.005
0.081498 0.5 0.005
0.0814633 0.541667 0.005
0.0814285 0.583333 0.005
0.0813938 0.625 0.005
0.081359 0.666667 0.005
0.0813243 0.708333 0.005
0.0812895 0.75 0.005
0.0812548 0.791667 0.005
0.0812201 0.833333 0.005
0.0811853 0.875 0.005
0.0811506 0.916667 0.005
0.0811158 0.958333 0.005
0.0810811 1.0 0.005
0.122872 0.0 0.005
0.12282 0.0416667 0.005
0.122768 0.0833333 0.005
0.122716 0.125 0.005
0.122664 0.166667 0.005
0.122612 0.208333 0.005
0.12256 0.25 0.005
0.122508 0.291667 0.005
0.122455 0.333333 0.005
0.122403 0.375 0.005
0.122351 0.416667 0.005
0.122299 0.458333 0.005
0.122247 0.5 0.005
0.122195 0.541667 0.005
0.122143 0.583333 0.005
0.122091 0.625 0.005
0.122039 0.666667 0.005
0.121986 0.708333 0.005
0.121934 0.75 0.005
0.121882 0.791667 0.005
0.12183 0.833333 0.005
0.121778 0.875 0.005
0.121726 0.916667 0.005
0.121674 0.958333 0.005
0.121622 1.0 0.005
0.16383 0.0 0.005
0.16376 0.0416667 0.005
0.163691 0.0833333 0.005
0.163621 0.125 0.005
0.163552 0.166667 0.005
0.163482 0.208333 0.005
0.163413 0.25 0.005
0.163343 0.291667 0.005
0.163274 0.333333 0.005
0.163204 0.375 0.005
0.163135 0.416667 0.005
0.163066 0.458333 0.005
0.162996 0.5 0.005
0.162927 0.541667 0.005
0.162857 0.583333 0.005
0.162788 0.625 0.005
0.162718 0.666667 0.005
0.162649 0.708333 0.005
0.162579 0.75 0.005
0.16251 0.791667 0.005
0.16244 0.833333 0.005
0.162371 0.875 0.005
0.162301 0.916667 0.005
0.162232 0.958333 0.005
0.162162 1.0 0.005
0.204787 0.0 0.005
0.2047 0.0416667 0.005
0.204614 0.0833333 0.005
0.204527 0.125 0.005
0.20444 0.166667 0.005
0.204353 0.208333 0.005
0.204266 0.25 0.005
0.204179 0.291667 0.005
0.204092 0.333333 0.005
0.204006 0.375 0.005
0.203919 0.416667 0.005
0.203832 0.458333 0.005
0.203745 0.5 0.005
0.203658 0.541667 0.005
0.203571 0.583333 0.005
0.203484 0.625 0.005
0.203398 0.666667 0.005
0.203311 0.708333 0.005
0.203224 0.75 0.005
0.203137 0.791667 0.005
0.20305 0.833333 0.005
0.202963 0.875 0.005
0.202876 0.916667 0.005
0.20279 0.958333 0.005
0.202703 1.0 0.005
0.245745 0.0 0.005
0.245641 0.0416667 0.005
0.245536 0.0833333 0.005
0.245432 0.125 0.005
0.245328 0.166667 0.005
0.245224 0.208333 0.005
0.245119 0.25 0.005
0.245015 0.291667 0.005
0.244911 0.333333 0.005
0.244807 0.375 0.005
0.244703 0.416667 0.005
0.244598 0.458333 0.005
0.244494 0.5 0.005
0.24439 0.541667 0.005
0.244286 0.583333 0.005
0.244181 0.625 0.005
0.244077 0.666667 0.005
0.243973 0.708333 0.005
0.243869 0.75 0.005
0.243764 0.791667 0.005
0.24366 0.833333 0.005
0.243556 0.875 0.005
0.243452 0.916667 0.005
0.243347 0.958333 0.005
0.243243 1.0 0.005
0.286702 0.0 0.005
0.286581 0.0416667 0.005
0.286459 0.0833333 0.005
0.286337 0.125 0.005
0.286216 0.166667 0.005
0.286094 0.208333 0.005
0.285973 0.25 0.005
0.285851 0.291667 0.005
0.285729 0.333333 0.005
0.285608 0.375 0.005
0.285486 0.416667 0.005
0.285365 0.458333 0.005
0.285243 0.5 0.005
0.285121 0.541667 0.005
0.285 0.583333 0.005
0.284878 0.625 0.005
0.284757 0.666667 0.005
0.284635 0.708333 0.005
0.284513 0.75 0.005
0.284392 0.791667 0.005
0.28427 0.833333 0.005
0.284149 0.875 0.005
0.284027 0.916667 0.005
0.283905 0.958333 0.005
0.283784 1.0 0.005
0.32766 0.0 0.005
0.327521 0.0416667 0.005
0.327382 0.0833333 0.005
0.327243 0.125 0.005
0.327104 0.166667 0.005
0.326965 0.208333 0.005
0.326826 0.25 0.005
0.326687 0.291667 0.005
0.326548 0.333333 0.005
0.326409 0.375 0.005
0.32627 0.416667 0.005
0.326131 0.458333 0.005
0.325992 0.5 0.005
0.325853 0.541667 0.005
0.325714 0.583333 0.005
0.325575 0.625 0.005
0.325436 0.666667 0.005
0.325297 0.708333 0.005
0.325158 0.75 0.005
0.325019 0.791667 0.005
0.32488 0.833333 0.005
0.324741 0.875 0.005
0.324602 0.916667 0.005
0.324463 0.958333 0.005
0.324324 1.0 0.005
0.368617 0.0 0.005
0.368461 0.0416667 0.005
0.368305 0.0833333 0.005
0.368148 0.125 0.005
0.367992 0.166667 0.005
0.367835 0.208333 0.005
0.367679 0.25 0.005
0.367523 0.291667 0.005
0.367366 0.333333 0.005
0.36721 0.375 0.005
0.367054 0.416667 0.005
0.366897 0.458333 0.005
0.366741 0.5 0.005
0.366585 0.541667 0.005
0.366428 0.583333 0.005
0.366272 0.625 0.005
0.366116 0.666667 0.005
0.365959 0.708333 0.005
0.365803 0.75 0.005
0.365647 0.791667 0.005
0.36549 0.833333 0.005
0.365334 0.875 0.005
0.365178 0.916667 0.005
0.365021 0.958333 0.005
0.364865 1.0 0.005
0.409575 0.0 0.005
0.409401 0.0416667 0.005
0.409227 0.0833333 0.005
0.409054 0.125 0.005
0.40888 0.166667 0.005
0.408706 0.208333 0.005
0.408532 0.25 0.005
0.408359 0.291667 0.005
0.408185 0.333333 0.005
0.408011 0.375 0.005
0.407838 0.416667 0.005
0.407664 0.458333 0.005
0.40749 0.5 0.005
0.407316 0.541667 0.005
0.407143 0.583333 0.005
0.406969 0.625 0.005
0.406795 0.666667 0.005
0.406621 0.708333 0.005
0.406448 0.75 0.005
0.406274 0.791667 0.005
0.4061 0.833333 0.005
0.405927 0.875 0.005
0.405753 0.916667 0.005
0.405579 0.958333 0.005
0.405405 1.0 0.005
0.450532 0.0 0.005
0.450341 0.0416667 0.005
0.45015 0.0833333 0.005
0.449959 0.125 0.005
0.449768 0.166667 0.005
0.449577 0.208333 0.005
0.449386 0.25 0.005
0.449195 0.291667 0.005
0.449003 0.333333 0.005
0.448812 0.375 0.005
0.448621 0.416667 0.005
0.44843 0.458333 0.005
0.448239 0.5 0.005
0.448048 0.541667 0.005
0.447857 0.583333 0.005
0.447666 0.625 0.005
0.447475 0.666667 0.005
0.447284 0.708333 0.005
0.447093 0.75 0.005
0.446901 0.791667 0.005
0.44671 0.833333 0.005
0.446519 0.875 0.005
0.446328 0.916667 0.005
0.446137 0.958333 0.005
0.445946 1.0 0.005
0.49149 0.0 0.005
0.491281 0.0416667 0.005
0.491073 0.0833333 0.005
0.490864 0.125 0.005
0.490656 0.166667 0.005
0.490447 0.208333 0.005
0.490239 0.25 0.005
0.49003 0.291667 0.005
0.489822 0.333333 0.005
0.489613 0.375 0.005
0.489405 0.416667 0.005
0.489197 0.458333 0.005
0.488988 0.5 0.005
0.48878 0.541667 0.005
0.488571 0.583333 0.005
0.488363 0.625 0.005
0.488154 0.666667 0.005
0.487946 0.708333 0.005
0.487737 0.75 0.005
0.487529 0.791667 0.005
0.48732 0.833333 0.005
0.487112 0.875 0.005
0.486903 0.916667 0.005
0.486695 0.958333 0.005
0.486486 1.0 0.005
0.531954 0.00563435 0.005
0.531749 0.0470663 0.005
0.531544 0.0884982 0.005
0.531338 0.12993 0.005
0.531133 0.171362 0.005
0.530928 0.212794 0.005
0.530722 0.254226 0.005
0.530517 0.295658 0.005
0.530312 0.33709 0.005
0.530107 0.378521 0.005
0.529901 0.419953 0.005
0.529696 0.461385 0.005
0.529491 0.502817 0.005
0.529285 0.544249 0.005
0.52908 0.585681 0.005
0.528875 0.627113 0.005
0.528669 0.668545 0.005
0.528464 0.709977 0.005
0.528259 0.751409 0.005
0.528054 0.79284 0.005
0.527848 0.834272 0.005
0.527643 0.875704 0.005
0.527438 0.917136 0.005
0.527232 0.958568 0.005
0.527027 1.0 0.005
0.572289 0.0127465 0.005
0.572093 0.0538821 0.005
0.571896 0.0950177 0.005
0.571699 0.136153 0.005
0.571502 0.177289 0.005
0.571306 0.218424 0.005
0.571109 0.25956 0.005
0.570912 0.300695 0.005
0.570715 0.341831 0.005
0.570519 0.382967 0.005
0.570322 0.424102 0.005
0.570125 0.465238 0.005
0.569928 0.506373 0.005
0.569732 0.547509 0.005
0.569535 0.588644 0.005
0.569338 0.62978 0.005
0.569142 0.670916 0.005
0.568945 0.712051 0.005
0.568748 0.753187 0.005
0.568551 0.794322 0.005
0.568355 0.835458 0.005
0.568158 0.876593 0.005
0.567961 0.917729 0.005
0.567764 0.958864 0.005
0.567568 1.0 0.005
0.612625 0.0198587 0.005
0.612436 0.0606979 0.005
0.612248 0.101537 0.005
0.61206 0.142376 0.005
0.611872 0.183216 0.005
0.611684 0.224055 0.005
0.611496 0.264894 0.005
0.611307 0.305733 0.005
0.611119 0.346572 0.005
0.610931 0.387412 0.005
0.610743 0.428251 0.005
0.610555 0.46909 0.005
0.610366 0.509929 0.005
0.610178 0.550769 0.005
0.60999 0.591608 0.005
0.609802 0.632447 0.005
0.609614 0.673286 0.005
0.609425 0.714125 0.005
0.609237 0.754965 0.005
0.609049 0.795804 0.005
0.608861 0.836643 0.005
0.608673 0.877482 0.005
0.608484 0.918322 0.005
0.608296 0.959161 0.005
0.608108 1.0 0.005
0.65296 0.0269708 0.005
0.65278 0.0675137 0.005
0.652601 0.108057 0.005
0.652421 0.148599 0.005
0.652241 0.189142 0.005
0.652062 0.229685 0.005
0.651882 0.270228 0.005
0.651702 0.310771 0.005
0.651523 0.351314 0.005
0.651343 0.391857 0.005
0.651164 0.4324 0.005
0.650984 0.472943 0.005
0.650804 0.513485 0.005
0.650625 0.554028 0.005
0.650445 0.594571 0.005
0.650265 0.635114 0.005
0.650086 0.675657 0.005
0.649906 0.7162 0.005
0.649726 0.756743 0.005
0.649547 0.797286 0.005
0.649367 0.837828 0.005
0.649188 0.878371 0.005
0.649008 0.918914 0.005
0.648828 0.959457 0.005
0.648649 1.0 0.005
0.693295 0.034083 0.005
0.693124 0.0743295 0.005
0.692953 0.114576 0.005
0.692782 0.154823 0.005
0.692611 0.195069 0.005
0.69244 0.235316 0.005
0.692269 0.275562 0.005
0.692098 0.315809 0.005
0.691926 0.356055 0.005
0.691755 0.396302 0.005
0.691584 0.436548 0.005
[...]
CELL_DATA 888
SCALARS P float 1
LOOKUP_TABLE default
100145.52223683173
100145.17451032654
100205.01029610653
100142.77841925171
100204.8829172493
100291.55149404767
100138.6642178475
100201.55604549308
100291.82362003175
100417.83147063498
100133.14350482837
100195.62537083315
100286.99569215637
100418.78426230945
100602.78669864016
100126.5296118087
100187.61863947244
100278.10615174612
100411.4703715443
100604.87344960595
100875.05153414133
100119.13158972663
100178.03786810247
100266.07114140732
100397.70459274133
100593.32204321091
100878.9474781447
101278.8295008156
100111.2410678973
100167.35859627585
100251.73635670137
100379.1072195366
100571.38469638674
100859.90010964964
101285.26227879398
101884.73330757918
100103.12015090308
100156.01604906561
100235.87273364307
100357.1413988226
100541.99161014816
100823.9708038621
101252.27409806645
101893.27932524434
102812.38327497769
100094.99360428314
100144.39198172392
100219.15892550239
100333.09066802754
100507.7191972706
100776.59693437356
101191.74443887234
101832.65909607739
102815.86731720742
104284.92647900678
100087.04568997196
100132.80690984802
100202.16783846769
100308.03468016254
100470.72624844844
100722.36172653848
101114.0018895723
101727.50174797596
102696.19842547966
104245.6089850406
106783.92692212762
100079.42076552928
100121.51847621301
100185.36341895784
100282.84420016597
100432.73716117084
100664.8914507065
101027.2090366467
101597.72974767102
102507.24116341723
103989.25099178379
106529.98753214243
111567.27979522922
100072.22664344044
100110.72474202054
100169.10522385377
100258.18962743507
100395.06339925715
100606.90090969039
100937.35773713666
101457.66129356065
102287.22027569529
103637.60691072377
105933.6606219706
110306.5984633351
122722.59137211906
100065.53940440099
100100.57056597731
100153.65916530647
100234.56514258178
100358.65844045421
100550.31882952095
100848.58061477049
101316.78881719025
102060.0373630106
103260.01373300103
105259.1312169904
108832.19722685372
116468.04576892377
133066.72032242746
100059.40889895894
100091.15563435642
100139.21133312308
100212.31566247952
100324.17681567368
100496.44087651715
100763.56727756208
101181.00791169371
101839.47873843227
102891.61564684001
104608.53211490024
107526.17704781485
112906.22663958969
123352.10673678177
141180.73627005526
100053.86435336771
100082.54285823581
100125.8824680208
100191.66525610507
100292.03872250438
100446.07968037573
100683.94679629018
101053.71344116956
101632.88792076391
102548.66608502774
104016.35684590519
106421.38193292983
110509.32311748403
117747.28485595138
129941.12450427611
147769.32528447374
100048.91960031714
100074.76678227077
100113.7419716044
100172.74435475357
100262.48621847165
100399.68948382454
100610.59722330741
100936.63946518298
101443.69830853085
102237.58755570542
103490.8634726932
105491.65796102812
108732.75603064061
114120.5147703475
122876.56738459611
135946.81377378764
153208.7075508237
100044.57786254934
100067.8409888215
100102.82082511052
100155.61251285777
100235.62849463074
100357.4708551834
100543.88778122919
100830.45750212792
101273.05150506279
101959.79727672091
103030.36064282962
104707.05646155842
107341.9413905166
111546.47762624154
118154.19061877525
127967.7481775601
141319.9139999546
157728.70852864662
100040.83610292488
100061.76489270556
100093.12266868788
100140.27930685879
100211.48260341564
100319.44885521683
100483.84769394957
100735.17215287058
101120.77830349657
101714.22844170764
102629.59942001206
104042.55493579051
106218.25540843738
109599.21792040083
114781.36004468754
122391.72951597473
132845.122915547
146083.50611632093
161487.96498321023
100037.68888242086
100056.52977609375
100084.6332923291
100126.72009483287
100190.00234896972
100285.53407006882
100430.29517870377
100650.39856805808
100985.99366014141
101498.66290040557
102282.30495517162
103478.19457288583
105293.28709474363
108064.30301016853
112239.11115665629
118309.70787585029
126666.6086838084
137418.27066742265
150280.47396557068
164606.00302636073
100035.13220916697
100052.12422416519
100077.32938153064
100114.8905124472
100171.10427731648
100255.56684216206
100382.92408106281
100575.53374713972
100867.46505573939
101310.42436372254
101982.20414550188
102997.93703737832
104523.0809102801
106822.7888581895
110247.41199743607
115193.06144036203
122008.65389023274
130861.83181786582
141645.32576604775
153958.21258623907
167177.7460896803
100033.16790735612
100048.53963977094
100071.18585927163
100104.73708883415
100154.68428552985
100229.35104696636
100341.3651201689
100509.87192567917
100763.82144729998
101146.747879733
101723.46363007375
102588.73840385383
103877.11610073084
105802.10633672225
108645.71301010091
112734.84717963767
118380.04238052423
125773.10480360832
134898.58077356438
145511.33939133465
157163.4854071737
169281.86068775365
100031.80948112527
100045.77693387508
100066.18385467493
100096.20861239874
100140.6351659137
100206.67903019264
100305.22744636078
100452.68396603817
100673.68148755653
101004.9777293012
101500.82937839616
102239.85363194338
103332.78679601349
104954.16182171911
107335.33023115898
110750.72402011874
115477.85229861907
121719.03482806384
129518.83108174232
138726.0963807585
149016.91023242427
159941.07240904582
170985.54221758677
100031.09205004737
100043.85619230276
100062.32072784078
100089.26656873738
100128.85906733721
100187.35110102515
100274.12948728056
100403.25920705107
100595.73230461885
100882.6655091045
101309.66585187423
101942.36192834903
102872.71198177828
104244.91868000213
106251.01059197224
109123.90294369252
113111.74119429704
118419.4654656035
125135.48714760368
133180.79213600478
142313.17329061643
152172.62013400113
162333.52835804084
172347.38781243988
100042.83353439445
100059.62489526554
100083.89982362301
100119.28336815856
100171.1926128854
100247.72234485854
100360.94213024697
100528.76821703425
100777.60553262057
101145.93043161163
101688.8208644296
102483.17031626846
103648.98135638307
105346.97089064923
107775.92136642999
111157.10573822667
115692.08689295848
121500.72616844918
128564.7664867014
136710.4689870568
145642.116689991
154994.04998936006
164380.65539957114
173416.03769868184
100058.1818239381
100080.14611507383
100111.87959805806
100158.07376179611
100225.71042934737
100325.15372225747
100471.71670670637
100687.85810777264
101006.14436908507
101472.99745115056
102153.08095342197
103146.8098756033
104589.42834772318
106651.06459659568
109528.17195694183
113413.94642974499
118448.7705877522
124664.75016618888
131952.49774881886
140072.62106698652
148705.4418824184
157500.56971835633
166119.0431260362
174236.5809416672
100078.12987940194
100106.69474508258
100147.93558518426
100207.8729978726
100295.41201485456
100423.65763806831
100611.7506093585
100887.33512983347
101289.68734461402
101873.4312648508
102722.96703212515
103952.52738172165
105707.93658391897
108162.75297915011
111498.28182169494
115865.66237798701
121336.11762790682
127859.45076324513
135254.71693362723
143243.0454809396
151502.90607717895
159712.95266792076
167583.6094721898
174843.3735724949
100103.90365217437
100140.83203258508
100194.10043965536
100271.36059372827
100383.83853775858
100547.87587780503
100786.99823621543
101134.54387231327
101636.83833981225
102365.070885969
103416.00916262552
104914.75091407445
107013.88402731364
109880.62856200081
113669.03679573168
118478.08134161074
124308.462574128
131038.50255090333
138436.4958804881
146206.26090394636
154039.6983497201
161653.3018135522
168803.10991510778
175270.73946748153
100137.00252695255
100184.44907926545
100252.80975554555
100351.70352299638
100495.10030184727
100703.06315393808
101003.97092405641
101437.24302067759
102063.09570606098
102963.714252428
104246.46343445001
106044.91367614805
108511.27323665765
111796.48365006625
116016.9744928226
121214.16095215477
127322.15669453242
134162.20618947674
141471.294341174
148953.6459496745
156324.76883430284
163342.77138097532
169807.65081668974
175544.09078383812
100179.24090336611
100239.8114685075
100326.94563168826
100452.59109793532
100633.88401806302
100895.03620994075
101269.68377185722
101808.90664260882
102582.62758342884
103683.01838494513
105226.65992973001
107350.54306178723
110198.50569761397
113895.84211692178
118513.99065099083
124035.77275457409
130336.98737600759
137197.2318812745
144339.5844518241
151481.1175265433
158369.14226746888
164801.8501886351
170620.32899228565
175690.8882000234
100232.79169732911
100309.60131845149
100419.8742545321
100578.25421961381
100805.43268433896
101130.1689938159
101595.89360882042
102262.19893977945
103208.23482692547
104535.49959623974
106366.25429131657
108834.74329036256
112068.43017755524
116159.00571640918
121128.89644131513
126905.42953030142
133316.79034794506
140116.3679016669
147027.7739642235
153789.8387742677
160185.3184846358
166050.8145863777
171265.30506698685
175726.8619713992
100300.22783093697
100396.957421269
100535.4749215906
100733.4696892052
101015.5710955324
101418.75755530539
101993.89592920808
102808.97901011916
103952.19923423816
105531.94335695074
107671.5374683731
110495.90188674245
114108.59252579956
118562.03988120425
123828.87240604659
129787.24569283583
136229.90601754107
142898.39670693982
149527.25277974957
155883.1531178031
161786.1065848074
167108.66135280952
171761.8222353102
175676.37598067836
100384.56403656426
100505.51148784136
100678.16369480995
100923.6092010406
101273.37316450212
101770.90433868123
102474.6164328958
103461.01434146153
104825.71434834751
106680.65506933918
109144.97673578102
112327.59752098797
116301.94250923183
121077.91899712739
126580.76722285361
132648.07058369898
139049.34545674844
145525.87226930025
151832.7028845179
157767.54952622214
163185.42405028624
167992.735572851
172129.19695248708
175551.90334182183
100489.29555913324
100639.42265307008
100852.95296997756
101156.75469380396
101587.92363698888
102196.63580630923
103049.15698787467
104229.49928369396
105838.30916463901
107987.00117117135
110784.93359284123
114318.87382486048
118627.49644612947
123677.63226745377
129352.11437913639
135457.27536991963
141752.4260029357
147987.4801374442
153942.7715266052
159449.58574411014
164396.0894774731
168718.64866546233
172383.98285061194
175374.01171098018
100618.44087161205
100803.44835147653
101067.14756318572
101441.12747917033
101968.4184346217
102706.33124797564
103728.4050191785
105124.49993631917
106997.26095036697
109452.96296928336
112585.53331982098
116454.4869489235
121061.19384420349
126331.15650319669
132111.86770246646
138188.70045196798
144319.74905426317
150273.13451658012
155857.3832304588
160936.43766929637
165430.487049134
169302.2738641954
172543.67679010227
175163.4581192281
100776.61619976198
101004.32839129212
101328.27233673885
101785.1953054583
102424.52770039692
103310.42630252367
104522.61738910773
106154.53521044018
108307.14986444141
111076.74412451265
114536.74513270485
118715.54879708868
123576.60147503702
129008.34696819133
134830.3142331114
140818.0363778628
146736.6241817089
152376.78605297682
157578.13367312663
162236.1221086348
166299.68150501297
169757.4708816908
172625.8988931746
174957.61727484752
100970.25097634042
101249.08639842045
101644.1926900301
102197.96909708733
102966.14185127603
104019.04276783172
105440.92954268958
107325.99262787076
109769.41437933121
112852.77168747582
116624.508968724
121079.9419683392
126145.94301443544
131679.18364336423
137480.70379643945
143323.92177336523
148989.17525479977
154293.6807783439
159106.97014673732
163355.22701307546
167014.2528805526
170097.53325341042
172653.94040875102
174802.9250847691
101206.07471783693
101545.13388888289
102023.35563916831
102688.80369160326
103603.10946227016
104841.59424036685
106490.90380277172
108642.66727489646
111382.04124696252
114771.4215062264
118831.17693681228
123522.61947596779
128739.99726198781
134314.84622297288
140037.63645776553
145688.1557148599
151067.00313012087
156019.59334887
160445.21162544336
164298.834563431
167581.5267403641
170333.14967414795
172651.24621655824
101491.24525917965
101900.47140452018
102474.61330411032
103267.15450816191
104344.8331084542
105786.34673728098
107678.07461557307
110105.38049373263
113139.29631832853
116819.2672506397
121135.70221606216
126017.41434502002
131329.75174328737
136887.2190071596
142477.7080933916
147893.66294254048
152959.54449408452
157549.27015194498
161591.83551273617
165067.982398973
168001.7039005874
170465.61354996104
101833.50252610381
102323.55997835402
103007.02958846139
103942.27870293467
105199.89966041529
106859.92493155506
109005.36610091738
111711.61856241935
115031.66626157377
118979.22263157905
123514.20402747774
128535.45357719509
133885.50246975233
139369.20836978187
144778.43564928664
149923.84425584294
154655.76408200813
158876.51599531856
162540.90912866278
165652.4141775688
168254.139502367
102241.05850170703
102823.11969097311
103629.61374499748
104722.84640419611
106175.6598114592
108066.84422643046
110472.78537125849
113455.14257421262
117045.42646052269
121230.20594085354
125939.62683848711
131046.58376398344
136377.42656953787
141733.4583346469
146917.35950304943
151761.38444172076
156141.72319142392
159986.77600381
163272.62281531963
166011.40852137262
102722.43311266313
103407.90720752912
104350.98182044057
105616.56255012457
107277.70317851375
109409.07417442086
112076.97241781038
115325.93668748076
119163.50314110721
123548.19160916426
128383.17920074398
133519.96884164002
138774.989760311
143952.3391455286
148870.88792291272
153384.85787797492
157395.71912287362
160849.8765360384
163726.46151616427
103286.20396609078
104086.4234680289
105178.9862582002
106629.73288749397
108509.38636334233
110885.47868633278
113810.79475059867
117309.53999505183
121364.27414354235
125905.86353788119
130813.12035449789
135922.5400726529
141046.094024629
145996.56860538325
150610.91909283143
154764.79819680055
158376.2229546281
161388.35424466972
103940.75990546934
104866.53994346892
106120.31858924186
107766.69207404056
109871.36770205123
112491.43850988378
115662.89958496731
119387.63084895321
123621.98393743088
128271.34552774271
133195.12604873822
138218.62298563612
143155.65549998984
147831.15814805633
152099.59163467484
155849.5939182329
158989.89162804827
104693.9549108909
105755.10349110846
107179.9444762875
109029.322012771
111360.83697808084
114218.09277916934
117617.56371132036
121536.9483601743
125906.92807335689
130610.59470399174
135490.85198827105
140368.4512942653
145062.42714910695
149409.99232005043
153274.1231049637
156528.8796162369
105552.68137118427
106757.47867596387
108360.65282071997
110416.5375972395
112971.54081965525
116052.41380858897
119654.06531337804
123729.26724965489
128184.45624309279
132882.89736697308
137656.4576768904
142324.82372099967
146712.71836272825
150660.50394163502
154010.43553428983
106522.4421188933
107876.97286823427
109662.47327453371
111923.56257361405
114692.32777723121
117975.98689672661
121746.29170433246
125930.78754254598
130413.90045276006
135042.522628009
139640.9503117237
144027.10941189888
148024.40699827304
151444.850697012
107606.83015912153
109114.2981254851
111081.77193746287
113541.11399931536
116506.96787657989
119964.7424221401
123861.54463575626
128101.0348772788
132547.47933021194
137033.63693549167
141376.4664912027
145385.4098674968
148847.55813212186
108806.8615322769
110466.83081261892
112611.0865008106
115255.30317753555
118393.57869769102
121987.88865610915
125960.12717839776
130191.21414620109
134526.04202467747
138784.08113543026
142765.59885144167
146238.00438925772
110120.45327979441
111927.92955182806
114237.61768462126
117045.58747524973
120323.12702949211
124006.80876360202
127993.25843478304
132140.61937240342
136273.75885236703
140189.35734558816
143638.48722337667
111541.48615754735
113486.11821836668
115942.82066043286
118884.97790143208
122258.44983646758
125973.00824897173
129899.19791290106
133870.30812081278
137681.69401984249
141073.3603579674
113059.11182091659
115123.98132259207
117701.02889617786
120737.70134670264
124151.97184816933
127824.61148485253
131597.15046580732
135267.24124359238
138567.41847160828
114656.58121555099
116817.03552685531
119477.97869339157
122557.31141665633
125942.02236234282
129480.14745061258
132972.11334648496
136146.8684787241
116310.06179408745
118532.15771664355
121228.34440407057
124283.44388829696
127547.44439014242
130823.72595634928
133838.39353698588
117987.22727147225
120225.39797111493
122893.27372882323
125835.4549416087
128853.17908521759
131670.57092579792
119644.90578362552
121838.63457033045
124392.9774203853
127099.17057604167
129676.10033909854
121225.75199561742
123293.78874259816
125615.512022328
127895.8767727929
122652.6158321181
124480.76040024485
126385.68830872155
123816.6170570106
125228.01553538193
124549.2149780732
SCALARS T float 1
LOOKUP_TABLE default
300.1256064868591
300.12528674982394
300.1774318456874
300.1231928241868
300.1772776369075
300.25325175054576
300.1196106170037
300.1743436192548
300.2533891503406
300.3646994964691
300.1148113399091
300.1691465679054
300.2490772368031
300.36530907792496
300.52946516560047
300.10906818629684
300.1621477022494
300.24122052430835
300.35866905630206
300.53080106589454
300.7748664880819
300.1026504908558
300.1537870490728
300.2306243419364
300.3463697757596
300.5201006899016
300.77720435443916
301.14399426173594
300.09581199333394
300.14448130607377
300.2180348366605
300.3298464812592
300.50023771725466
300.75914466452406
301.1472619162345
301.7069073404021
300.0887802242579
300.13461102647625
300.2041319028451
300.3104002673483
300.4738320803711
300.72609969111386
301.11520492826645
301.70911695084413
302.5828832619277
300.0817497640131
300.1245089333321
300.1895122732657
300.28917134196104
300.4431954743352
300.6829830950887
301.0585597268637
301.6488817790592
302.57404356795075
303.98985861714647
300.0748796199006
300.114453266151
300.1746773962986
300.2671147405293
300.4102607007935
300.633946860846
300.98676348882924
301.5487320039148
302.45344195214864
303.9287036034618
306.3706648241942
300.06829389991157
300.10466664275685
300.16003101734617
300.2449957498763
300.3765622472385
300.5822632044374
300.90728007320837
301.42705008883866
302.27078992987504
303.6706379523754
306.0922990724095
310.7637925652443
300.062084875052
300.09531925994406
300.1458838746344
300.22339863728604
300.34325640028726
300.5303603687369
300.8255536364953
301.2970295606841
302.06158049359425
303.3280936745234
305.5057900109588
309.5904080673592
320.00397935568316
300.0563172757602
300.08653475590415
300.1324638390577
300.2027495871214
300.31117346697965
300.4799404119023
300.7452909344919
301.1673323232826
301.8479332003324
302.96549321187285
304.852032551686
308.2107822839737
315.0033290989711
328.0462562993141
300.05103315167463
300.0783974432837
300.1199286411718
300.1833420178012
300.28087396871535
300.4321249321341
300.66885533479723
301.0432342187426
301.6424219109157
302.6153839327341
304.22600595813395
306.9733192770082
311.9068431107035
320.7852468220251
334.10256577188017
300.04625678814193
300.07095978797696
300.1083789981003
300.1653628347374
300.2527091512034
300.3875973811899
300.5976322554695
300.9276696453455
301.45152782080675
302.29247287612986
303.660135512546
305.9199762778311
309.721902709067
316.16532334030063
326.09638044025075
338.885784087018
300.04199926863674
300.0642498272798
300.0978711679071
300.1489172161457
300.22687308818877
300.34672061527095
300.5323242774359
300.8220370781215
301.2780592245604
302.0021335643163
303.1617990356434
305.03324273378723
308.06202128800265
312.98317387907247
320.53029744205725
330.76879985766556
342.7515336781682
300.0382626275322
300.05827765785347
300.08842840636026
300.1340491275935
300.20344421101555
300.3096343269907
300.47318004819755
300.72677124662766
301.1227081625252
301.745022076139
302.7286288825733
304.28763051300996
306.74857731970724
310.63796988407574
316.537897910453
324.72166670180485
334.8236096115521
345.9084955812853
300.0350436105754
300.0530413506462
300.080050705477
300.1207599098663
300.1824220404924