# vtk DataFile Version 2.0
JuliaCFD
ASCII
DATASET UNSTRUCTURED_GRID

POINTS 1900 float
0.0 0.0 0.005
0.0 0.0416667 0.005
0.0 0.0833333 0.005
0.0 0.125 0.005
0.0 0.166667 0.005
0.0 0.208333 0.005
0.0 0.25 0.005
0.0 0.291667 0.005
0.0 0.333333 0.005
0.0 0.375 0.005
0.0 0.416667 0.005
0.0 0.458333 0.005
0.0 0.5 0.005
0.0 0.541667 0.005
0.0 0.583333 0.005
0.0 0.625 0.005
0.0 0.666667 0.005
0.0 0.708333 0.005
0.0 0.75 0.005
0.0 0.791667 0.005
0.0 0.833333 0.005
0.0 0.875 0.005
0.0 0.916667 0.005
0.0 0.958333 0.005
0.0 1.0 0.005
0.0409575 0.0 0.005
0.0409401 0.0416667 0.005
0.0409227 0.0833333 0.005
0.0409054 0.125 0.005
0.040888 0.166667 0.005
0.0408706 0.208333 0.005
0.0408532 0.25 0.005
0.0408359 0.291667 0.005
0.0408185 0.333333 0.005
0.0408011 0.375 0.005
0.0407838 0.416667 0.005
0.0407664 0.458333 0.005
0.040749 0.5 0.005
0.0407316 0.541667 0.005
0.0407143 0.583333 0.005
0.0406969 0.625 0.005
0.0406795 0.666667 0.005
0.0406621 0.708333 0.005
0.0406448 0.75 0.005
0.0406274 0.791667 0.005
0.04061 0.833333 0.005
0.0405927 0.875 0.005
0.0405753 0.916667 0.005
0.0405579 0.958333 0.005
0.0405405 1.0 0.005
0.0819149 0.0 0.005
0.0818802 0.0416667 0.005
0.0818455 0.0833333 0.005
0.0818107 0.125 0.005
0.081776 0.166667 0.005
0.0817412 0.208333 0.005
0.0817065 0.25 0.005
0.0816717 0.291667 0.005
0.081637 0.333333 0.005
0.0816022 0.375 0.005
0.0815675 0.416667 0.005
0.0815328 0.458333 0.005
0.081498 0.5 0.005
0.0814633 0.541667 0.005
0.0814285 0.583333 0.005
0.0813938 0.625 0.005
0.081359 0.666667 0.005
0.0813243 0.708333 0.005
0.0812895 0.75 0.005
0.0812548 0.791667 0.005
0.0812201 0.833333 0.005
0.0811853 0.875 0.005
0.0811506 0.916667 0.005
0.0811158 0.958333 0.005
0.0810811 1.0 0.005
0.122872 0.0 0.005
0.12282 0.0416667 0.005
0.122768 0.0833333 0.005
0.122716 0.125 0.005
0.122664 0.166667 0.005
0.122612 0.208333 0.005
0.12256 0.25 0.005
0.122508 0.291667 0.005
0.122455 0.333333 0.005
0.122403 0.375 0.005
0.122351 0.416667 0.005
0.122299 0.458333 0.005
0.122247 0.5 0.005
0.122195 0.541667 0.005
0.122143 0.583333 0.005
0.122091 0.625 0.005
0.122039 0.666667 0.005
0.121986 0.708333 0.005
0.121934 0.75 0.005
0.121882 0.791667 0.005
0.12183 0.833333 0.005
0.121778 0.875 0.005
0.121726 0.916667 0.005
0.121674 0.958333 0.005
0.121622 1.0 0.005
0.16383 0.0 0.005
0.16376 0.0416667 0.005
0.163691 0.0833333 0.005
0.163621 0.125 0.005
0.163552 0.166667 0.005
0.163482 0.208333 0.005
0.163413 0.25 0.005
0.163343 0.291667 0.005
0.163274 0.333333 0.005
0.163204 0.375 0.005
0.163135 0.416667 0.005
0.163066 0.458333 0.005
0.162996 0.5 0.005
0.162927 0.541667 0.005
0.162857 0.583333 0.005
0.162788 0.625 0.005
0.162718 0.666667 0.005
0.162649 0.708333 0.005
0.162579 0.75 0.005
0.16251 0.791667 0.005
0.16244 0.833333 0.005
0.162371 0.875 0.005
0.162301 0.916667 0.005
0.162232 0.958333 0.005
0.162162 1.0 0.005
0.204787 0.0 0.005
0.2047 0.0416667 0.005
0.204614 0.0833333 0.005
0.204527 0.125 0.005
0.20444 0.166667 0.005
0.204353 0.208333 0.005
0.204266 0.25 0.005
0.204179 0.291667 0.005
0.204092 0.333333 0.005
0.204006 0.375 0.005
0.203919 0.416667 0.005
0.203832 0.458333 0.005
0.203745 0.5 0.005
0.203658 0.541667 0.005
0.203571 0.583333 0.005
0.203484 0.625 0.005
0.203398 0.666667 0.005
0.203311 0.708333 0.005
0.203224 0.75 0.005
0.203137 0.791667 0.005
0.20305 0.833333 0.005
0.202963 0.875 0.005
0.202876 0.916667 0.005
0.20279 0.958333 0.005
0.202703 1.0 0.005
0.245745 0.0 0.005
0.245641 0.0416667 0.005
0.245536 0.0833333 0.005
0.245432 0.125 0.005
0.245328 0.166667 0.005
0.245224 0.208333 0.005
0.245119 0.25 0.005
0.245015 0.291667 0.005
0.244911 0.333333 0.005
0.244807 0.375 0.005
0.244703 0.416667 0.005
0.244598 0.458333 0.005
0.244494 0.5 0.005
0.24439 0.541667 0.005
0.244286 0.583333 0.005
0.244181 0.625 0.005
0.244077 0.666667 0.005
0.243973 0.708333 0.005
0.243869 0.75 0.005
0.243764 0.791667 0.005
0.24366 0.833333 0.005
0.243556 0.875 0.005
0.243452 0.916667 0.005
0.243347 0.958333 0.005
0.243243 1.0 0.005
0.286702 0.0 0.005
0.286581 0.0416667 0.005
0.286459 0.0833333 0.005
0.286337 0.125 0.005
0.286216 0.166667 0.005
0.286094 0.208333 0.005
0.285973 0.25 0.005
0.285851 0.291667 0.005
0.285729 0.333333 0.005
0.285608 0.375 0.005
0.285486 0.416667 0.005
0.285365 0.458333 0.005
0.285243 0.5 0.005
0.285121 0.541667 0.005
0.285 0.583333 0.005
0.284878 0.625 0.005
0.284757 0.666667 0.005
0.284635 0.708333 0.005
0.284513 0.75 0.005
0.284392 0.791667 0.005
0.28427 0.833333 0.005
0.284149 0.875 0.005
0.284027 0.916667 0.005
0.283905 0.958333 0.005
0.283784 1.0 0.005
0.32766 0.0 0.005
0.327521 0.0416667 0.005
0.327382 0.0833333 0.005
0.327243 0.125 0.005
0.327104 0.166667 0.005
0.326965 0.208333 0.005
0.326826 0.25 0.005
0.326687 0.291667 0.005
0.326548 0.333333 0.005
0.326409 0.375 0.005
0.32627 0.416667 0.005
0.326131 0.458333 0.005
0.325992 0.5 0.005
0.325853 0.541667 0.005
0.325714 0.583333 0.005
0.325575 0.625 0.005
0.325436 0.666667 0.005
0.325297 0.708333 0.005
0.325158 0.75 0.005
0.325019 0.791667 0.005
0.32488 0.833333 0.005
0.324741 0.875 0.005
0.324602 0.916667 0.005
0.324463 0.958333 0.005
0.324324 1.0 0.005
0.368617 0.0 0.005
0.368461 0.0416667 0.005
0.368305 0.0833333 0.005
0.368148 0.125 0.005
0.367992 0.166667 0.005
0.367835 0.208333 0.005
0.367679 0.25 0.005
0.367523 0.291667 0.005
0.367366 0.333333 0.005
0.36721 0.375 0.005
0.367054 0.416667 0.005
0.366897 0.458333 0.005
0.366741 0.5 0.005
0.366585 0.541667 0.005
0.366428 0.583333 0.005
0.366272 0.625 0.005
0.366116 0.666667 0.005
0.365959 0.708333 0.005
0.365803 0.75 0.005
0.365647 0.791667 0.005
0.36549 0.833333 0.005
0.365334 0.875 0.005
0.365178 0.916667 0.005
0.365021 0.958333 0.005
0.364865 1.0 0.005
0.409575 0.0 0.005
0.409401 0.0416667 0.005
0.409227 0.0833333 0.005
0.409054 0.125 0.005
0.40888 0.166667 0.005
0.408706 0.208333 0.005
0.408532 0.25 0.005
0.408359 0.291667 0.005
0.408185 0.333333 0.005
0.408011 0.375 0.005
0.407838 0.416667 0.005
0.407664 0.458333 0.005
0.40749 0.5 0.005
0.407316 0.541667 0.005
0.407143 0.583333 0.005
0.406969 0.625 0.005
0.406795 0.666667 0.005
0.406621 0.708333 0.005
0.406448 0.75 0.005
0.406274 0.791667 0.005
0.4061 0.833333 0.005
0.405927 0.875 0.005
0.405753 0.916667 0.005
0.405579 0.958333 0.005
0.405405 1.0 0.005
0.450532 0.0 0.005
0.450341 0.0416667 0.005
0.45015 0.0833333 0.005
0.449959 0.125 0.005
0.449768 0.166667 0.005
0.449577 0.208333 0.005
0.449386 0.25 0.005
0.449195 0.291667 0.005
0.449003 0.333333 0.005
0.448812 0.375 0.005
0.448621 0.416667 0.005
0.44843 0.458333 0.005
0.448239 0.5 0.005
0.448048 0.541667 0.005
0.447857 0.583333 0.005
0.447666 0.625 0.005
0.447475 0.666667 0.005
0.447284 0.708333 0.005
0.447093 0.75 0.005
0.446901 0.791667 0.005
0.44671 0.833333 0.005
0.446519 0.875 0.005
0.446328 0.916667 0.005
0.446137 0.958333 0.005
0.445946 1.0 0.005
0.49149 0.0 0.005
0.491281 0.0416667 0.005
0.491073 0.0833333 0.005
0.490864 0.125 0.005
0.490656 0.166667 0.005
0.490447 0.208333 0.005
0.490239 0.25 0.005
0.49003 0.291667 0.005
0.489822 0.333333 0.005
0.489613 0.375 0.005
0.489405 0.416667 0.005
0.489197 0.458333 0.005
0.488988 0.5 0.005
0.48878 0.541667 0.005
0.488571 0.583333 0.005
0.488363 0.625 0.005
0.488154 0.666667 0.005
0.487946 0.708333 0.005
0.487737 0.75 0.005
0.487529 0.791667 0.005
0.48732 0.833333 0.005
0.487112 0.875 0.005
0.486903 0.916667 0.005
0.486695 0.958333 0.005
0.486486 1.0 0.005
0.531954 0.00563435 0.005
0.531749 0.0470663 0.005
0.531544 0.0884982 0.005
0.531338 0.12993 0.005
0.531133 0.171362 0.005
0.530928 0.212794 0.005
0.530722 0.254226 0.005
0.530517 0.295658 0.005
0.530312 0.33709 0.005
0.530107 0.378521 0.005
0.529901 0.419953 0.005
0.529696 0.461385 0.005
0.529491 0.502817 0.005
0.529285 0.544249 0.005
0.52908 0.585681 0.005
0.528875 0.627113 0.005
0.528669 0.668545 0.005
0.528464 0.709977 0.005
0.528259 0.751409 0.005
0.528054 0.79284 0.005
0.527848 0.834272 0.005
0.527643 0.875704 0.005
0.527438 0.917136 0.005
0.527232 0.958568 0.005
0.527027 1.0 0.005
0.572289 0.0127465 0.005
0.572093 0.0538821 0.005
0.571896 0.0950177 0.005
0.571699 0.136153 0.005
0.571502 0.177289 0.005
0.571306 0.218424 0.005
0.571109 0.25956 0.005
0.570912 0.300695 0.005
0.570715 0.341831 0.005
0.570519 0.382967 0.005
0.570322 0.424102 0.005
0.570125 0.465238 0.005
0.569928 0.506373 0.005
0.569732 0.547509 0.005
0.569535 0.588644 0.005
0.569338 0.62978 0.005
0.569142 0.670916 0.005
0.568945 0.712051 0.005
0.568748 0.753187 0.005
0.568551 0.794322 0.005
0.568355 0.835458 0.005
0.568158 0.876593 0.005
0.567961 0.917729 0.005
0.567764 0.958864 0.005
0.567568 1.0 0.005
0.612625 0.0198587 0.005
0.612436 0.0606979 0.005
0.612248 0.101537 0.005
0.61206 0.142376 0.005
0.611872 0.183216 0.005
0.611684 0.224055 0.005
0.611496 0.264894 0.005
0.611307 0.305733 0.005
0.611119 0.346572 0.005
0.610931 0.387412 0.005
0.610743 0.428251 0.005
0.610555 0.46909 0.005
0.610366 0.509929 0.005
0.610178 0.550769 0.005
0.60999 0.591608 0.005
0.609802 0.632447 0.005
0.609614 0.673286 0.005
0.609425 0.714125 0.005
0.609237 0.754965 0.005
0.609049 0.795804 0.005
0.608861 0.836643 0.005
0.608673 0.877482 0.005
0.608484 0.918322 0.005
0.608296 0.959161 0.005
0.608108 1.0 0.005
0.65296 0.0269708 0.005
0.65278 0.0675137 0.005
0.652601 0.108057 0.005
0.652421 0.148599 0.005
0.652241 0.189142 0.005
0.652062 0.229685 0.005
0.651882 0.270228 0.005
0.651702 0.310771 0.005
0.651523 0.351314 0.005
0.651343 0.391857 0.005
0.651164 0.4324 0.005
0.650984 0.472943 0.005
0.650804 0.513485 0.005
0.650625 0.554028 0.005
0.650445 0.594571 0.005
0.650265 0.635114 0.005
0.650086 0.675657 0.005
0.649906 0.7162 0.005
0.649726 0.756743 0.005
0.649547 0.797286 0.005
0.649367 0.837828 0.005
0.649188 0.878371 0.005
0.649008 0.918914 0.005
0.648828 0.959457 0.005
0.648649 1.0 0.005
0.693295 0.034083 0.005
0.693124 0.0743295 0.005
0.692953 0.114576 0.005
0.692782 0.154823 0.005
0.692611 0.195069 0.005
0.69244 0.235316 0.005
0.692269 0.275562 0.005
0.692098 0.315809 0.005
0.691926 0.356055 0.005
0.691755 0.396302 0.005
0.691584 0.436548 0.005
[...]
CELL_DATA 888
SCALARS P float 1
LOOKUP_TABLE default
100102.67657193952
100102.36044157596
100146.36871786915
100100.26277956818
100146.23131226185
100212.42102746277
100096.67860573743
100143.29181440895
100212.6087258853
100312.18491806307
100091.89180090673
100138.08271558807
100208.27795985868
100312.933748748
100462.89694377505
100086.18984532355
100131.08523161018
100200.36508220989
100306.25736007612
100464.59471576795
100691.03284750768
100079.8558447011
100122.76111460866
100189.71146784686
100293.81334987465
100453.8663999181
100694.25685723602
101038.06679588881
100073.15498153435
100113.54759886149
100177.10017227562
100277.10520753691
100433.72613231878
100676.28685415717
101043.39697921759
101571.18050108424
100066.32265629082
100103.84214055674
100163.24480418589
100257.49930283375
100406.92343853964
100642.82229554247
101011.85064951309
101577.9738007189
102405.69756093768
100059.55711663104
100093.98909830816
100148.76933529116
100236.19294145718
100375.88539572555
100599.0192281991
100954.74424609319
101519.35030796258
102406.48187526285
103759.34311135358
100053.01672238261
100084.2723177986
100134.19397659581
100214.18615445192
100342.64089587923
100549.22967519038
100881.96108598563
101419.02605702521
102289.72556795293
103716.11038819699
106106.43906844166
100046.82090873965
100074.91393719787
100119.93198827117
100192.27501685698
100308.79790797486
100496.88385200419
100801.30364539208
101296.20323408033
102107.72809197931
103464.33150404846
105847.78488152252
110693.05898222572
100041.05379841311
100066.07804834415
100106.29458398293
100171.06006100874
100275.56248677956
100444.52696257703
100718.4683406559
101164.6373435803
101897.52973708039
103122.92815408125
105259.37898713554
109431.23829142918
121577.11652454981
100035.76917948706
100057.87736878115
100093.50197312508
100150.97007714109
100243.79188410264
100393.9393045732
100637.34278576566
101033.3810448436
101682.16315111045
102759.30626212884
104600.21678673688
107971.95858201511
115350.74346820661
131621.46435128138
100030.99609459945
100050.38143903833
100081.69737590886
100132.28912667453
100214.05301937547
100346.28571193808
100560.41040931319
100907.98163307832
101474.77564040912
102407.31903822995
103969.49484181058
106689.23705331089
111819.23599091725
121954.28197863253
139420.84371787286
100026.74446581179
100043.62512645083
100070.96161907814
100115.1849747861
100186.68608567723
100302.26247523622
100489.12449825392
100791.55329505232
101282.23124373019
102082.3375034942
103399.96038576594
105612.42486681805
109457.06135456887
116393.46063147688
128231.7060678738
145676.59148762317
100023.01029273483
100037.61701535007
100061.32717349104
100099.7360902365
100161.86008616278
100262.22011257555
100424.21163727652
100685.59966733622
101107.59395250886
101790.15669862903
102898.75600033622
104713.4567968799
107718.79548069704
112813.01401827001
121218.54326636494
133897.5149261899
150763.92863923605
100019.78035213353
100032.34677894636
100052.79099934227
100085.95438779888
100139.61786871825
100226.26620118275
100365.90870208743
100590.59903088724
100951.71215496023
101531.72890912658
102463.42897490965
103961.1730904748
106368.65648908714
110288.28459486197
116551.36359973803
125970.70378287621
138904.04600143142
154912.7576223849
100017.03639664149
100027.79183525735
100045.32550534197
100073.80575929832
100119.91598553749
100194.34231617124
100314.12893418786
100506.39188182911
100814.1779679834
101305.62992227287
102088.17963117878
103329.7152079122
105286.97526056839
108392.61311475425
113237.7398062454
120454.63956066847
130476.20220542901
143275.84975042922
158282.35316617388
100014.75880139324
100023.92316856254
100038.88786245823
100063.22570940427
100102.65339351361
100166.28383576772
100268.58772194751
100432.45138381066
100693.9079116297
101109.35692799123
101766.31611741729
102798.51202526054
104404.505917755
106910.61048895401
110757.8184039127
116439.23209315783
124357.78486016333
134646.57506788458
147057.41158352295
160993.2637529468
100012.93004625349
100020.71042797026
100033.42832763382
100054.13328902856
100087.69651062648
100141.86331286529
100228.88725263825
100368.0506710854
100589.50065868655
100940.000678124
101491.23843441723
102351.058519693
103676.64205489418
105722.43437417097
108830.37944998624
113394.28115795708
119770.45950052007
128145.63254262108
138442.15213960406
150298.02595773534
163141.77206766143
100011.53843892986
100018.1268470985
100028.89709367671
100046.4413822522
100074.8956560378
100120.8231849573
100194.57607824453
100312.37495418613
100499.43973732603
100794.6015201935
101256.8479554366
101973.9435326655
103072.33900168627
104754.76149901462
107293.73695488764
111011.15455297628
116220.5374284672
123127.61323993011
131741.62707778855
141850.42898846493
153046.69521069172
164808.18197059465
100010.58281613562
100016.15483032883
100025.25127924026
100040.0669887621
100064.10129654563
100102.89964333356
100165.18927885478
100264.59760952478
100422.21685482014
100670.3374224256
101057.67077233372
101656.12549739901
102568.57912968492
103958.88082499798
106048.21200601828
109103.93085832262
113402.7617261513
119156.0601920069
126428.42299334855
135097.73019600828
144874.90059000807
155350.51673625733
166061.55686939225
100010.08013509185
100014.79354812154
100022.46314234729
100034.94028099142
100055.17544684726
100087.84081970008
100140.2776307715
100223.92066465454
100356.406410914
100564.6150977953
100888.88483896195
101388.438172861
102147.64726446389
103300.24741154525
105027.73463605884
107554.44327843611
111124.65577598361
115947.84875580162
122127.70525128537
129610.46562382286
138185.78197325324
147529.19258752037
157254.76348910245
166962.83274907572
100014.07170040367
100020.53161765066
100031.01646586653
100048.0050614153
100075.42199456769
100119.42899925397
100189.60836750935
100300.70148997125
100475.10167551268
100746.28702566658
101163.23220109234
101795.54112534795
102753.0625046023
104185.85055954421
106283.0734552591
109259.7286607617
113317.94727651817
118588.10479696562
125073.08833810575
132628.41832819354
140991.66565135628
149832.108322496
158802.3802917626
167563.4361071754
100019.5020131794
100028.29244539198
100042.5172204149
100065.46201199933
100102.28604827984
100161.00617806736
100253.9366226835
100399.74274508878
100626.25641652408
100974.09751433437
101500.9491633535
102297.44924017857
103488.2334269913
105233.16536382631
107720.6005426996
111140.9692517368
115640.62717508782
121268.330747067
127940.90591224632
135450.822637145
143511.8537094039
151806.82752285537
160033.43309573227
167911.48058179388
100026.8356536536
100038.70334776537
100057.84385870835
100088.5637469271
100137.55763944292
100215.10305451383
100336.75941590763
100525.69264337623
100815.67278573925
101254.66127031099
101917.6956750328
102908.59170289834
104362.56064973428
106443.74778742195
109328.00295280931
113168.33651903324
118047.9487276365
123939.10545429566
130690.98237314909
138057.7770146842
145750.2327368563
153478.31273553104
160986.71684059038
168045.22644673055
100036.65949016745
100052.54725513418
100078.0777119218
100118.82644654733
100183.35923063566
100284.64234522723
100441.97199579705
100683.47036251426
101049.11955555232
101601.18534200768
102426.30884746781
103638.85502589232
105381.11649639285
107812.76912644651
111086.18729842627
115307.76543460919
120496.33055992615
126557.7176379264
133292.88950698555
140438.58592611807
147716.80471784194
154873.20511576504
161695.30646952195
168003.0019291865
100049.70493934749
100070.78665811183
100104.52797937294
100158.05160243409
100242.1529256248
100372.90752549286
100573.7613915432
100878.10763143755
101337.69233427802
102024.92946569672
103036.50710903617
104495.17666127493
106544.02625291009
109329.40295674597
112970.93016969618
117523.53417223596
122945.31232968204
129088.95120275224
135725.2022591181
142589.74541689415
149425.70249225647
156017.6663006605
162194.22742737763
167815.50417749063
100066.87036553357
100094.58735546705
100138.75376268302
100208.33980984314
100316.73036575086
100483.48136635248
100736.51725564981
101118.89945571638
101691.18449589924
102535.06020317918
103756.02625662759
105480.85680243414
107846.4554013561
110977.59021595429
114954.61283257915
119780.10158089058
125358.94412548115
131504.75206947883
137974.08089393578
144512.9409221995
150893.6001083406
156937.66055742127
162512.09892328733
167515.773703229
100089.24369846846
100125.33939228556
100182.58041930188
100272.09160263445
100410.17960224349
100620.20458783198
100938.02475333349
101414.30226588747
102117.99407458022
103139.46924606193
104590.05403046073
106595.26732362609
109278.90537596721
112737.24284484147
117007.86488529126
122043.79304371905
127706.3194374998
133783.93478525287
140032.1160963308
146215.636324071
152139.1346723852
157659.6248026459
162679.47658686392
167126.92843146092
100118.1230518131
100164.6756154704
100238.10904291492
100351.99626531459
100525.87437245915
100789.59520910573
101185.5441721017
101771.88361907241
102625.79279115536
103844.32089303467
105540.75902112287
107833.79933075601
110827.70593061682
114585.4082527608
119101.06548081344
124283.74856293613
129961.95858573388
135911.99788690088
141897.4840111636
147707.93893585444
153181.87114960593
158209.52404428975
162723.1775138256
166681.71626731777
100155.03656311064
100214.48731389623
100307.72199813106
100451.04509107735
100669.2881332919
100997.88304612382
101485.8267165225
102198.85331837593
103221.08342134027
104653.52387216248
106607.08254843655
109188.04074626091
112475.89320975839
116497.4768961869
121205.63295388159
126472.9762002668
132105.93204254805
137878.8319324278
143572.38851904141
149003.81235893996
154043.32354954616
158612.76011984146
162671.42364207815
166203.28080810048
100201.76028455935
100276.93906806823
100394.10880095218
100573.87153034168
100845.77976717017
101251.04236046923
101845.49668308074
102701.69377655351
103908.80112701142
105568.48998275072
107784.70985624213
110646.26538143468
114204.05562773348
118448.37238400872
123295.00559828072
128588.06824449303
134123.42824336715
139681.15256149886
145063.62127677794
150118.0476218071
154744.89722281185
158894.24857963852
162551.5558261449
165724.5992578409
100260.33965158426
100354.50689849033
100501.2513008823
100725.10452300732
101060.6147803983
101555.07484267201
102270.76031608913
103285.77536061413
104691.94996643164
106587.94550890273
109066.2020894413
112193.91552129063
115991.29316857691
120413.53855210241
125345.34184594726
130611.1118569718
136003.73987740465
141317.7599156811
146380.11121305736
151067.02226321708
155308.8882821716
159081.08457350064
162393.85972835444
165281.4879069101
100333.1331188587
100450.70370085996
100633.1969521925
100909.39681270462
101319.18917820868
101915.78700059187
102767.11543626823
103955.10317795018
105571.3965770195
107707.83808106603
110441.34364240746
113814.39702650651
117816.00830393577
122369.80894925653
127335.41905262039
132527.0702194789
137741.67076516474
142792.34045364877
147533.33593928115
151869.29794391865
155757.9383231345
159200.16307614534
162230.66242602837
164925.72010591178
100423.39557496033
100569.15964439043
100794.09446469058
101131.58892346243
101626.84529008386
102338.5410263425
103339.04589269336
104711.99440855355
106545.71560828193
108921.58367415656
111897.49551582425
115489.67309174764
119656.97709924344
124295.65408957798
129248.15465523444
134324.8606992588
139333.91928459314
144110.9752595016
148536.51594366017
152543.63876439797
156116.11602296628
159279.68601998268
162099.99202148398
164710.94113619215
100534.5167713654
100713.64721758524
100988.31205075544
101396.56577454951
101988.69317729755
102828.01261569453
103989.78103609469
105556.8900115054
107611.16411160654
110220.1147738237
113420.226998596
117200.6621274892
121493.27007509371
126172.19007001232
131069.08025559186
135997.53843897823
140781.7742377475
145281.51592932205
149403.81296124344
153109.07861947833
156405.93069411628
159345.06876988627
162031.8825236152
100670.05741851589
100888.16691436234
101220.31700379809
101709.10348285979
102409.36825341964
103387.9505691218
104721.10041765298
106488.2661359636
108761.74606672875
111592.35797903605
114993.70735768817
118929.03987128347
123305.88531199256
127982.75022788635
132786.9649311489
137540.68935242
142087.70254305704
146312.29559301265
150148.80130637277
153582.29476730464
156642.661745732
159404.84582858873
100833.80505519612
101096.86000064376
101494.55388121158
102073.68892959428
102892.83575932118
104020.94531575467
105533.07989503795
107502.59860389153
109989.42460191422
113025.59427836223
116601.3684769282
120655.8609798276
125076.89712274853
129713.18291483918
134392.8158224779
138951.7765990353
143255.19217666067
147212.57494649864
150781.7922183517
153968.6279416622
156813.84543084644
101029.69859393436
101343.88672621817
101815.29157777679
102494.3191702113
103442.19876465284
104728.24941682423
106424.08748382419
108594.33106013526
111284.02906413254
114505.40627183691
118225.7415712831
122362.90184504483
126790.0725672629
131350.66173109086
135879.37104910167
140229.16157647793
144286.7612413321
147984.8075414872
151299.3957683168
154236.83636042598
101261.73070497425
101633.30587013296
102186.4559931382
102974.32844868008
104059.47763754
105509.66203318749
107390.70210742811
109756.13281108499
112634.30178460687
116016.78395618788
119849.87737700346
124033.32847326476
128430.31424869542
132883.76996665352
137239.94366182786
141368.91934847154
145178.835647106
148616.22716904856
151652.0465039555
101533.81544134779
101968.93020780475
102611.45999917026
103516.22258809188
104745.45575017456
106363.37229928961
108427.70390818894
110978.61270806962
114027.06173866591
117544.03246994632
121456.33020346693
125650.30324078063
129982.90985153202
134301.46143202565
138465.28153979406
142361.00126398084
145908.45736115647
149042.23847456483
101849.67236853976
102354.16479902827
103093.05639208994
104121.4586193643
105499.5832277842
107285.95531364984
109527.98615409006
112251.12212602532
115447.7890365925
119069.68868143782
123027.60247053028
127196.68649274542
131432.33662697524
135589.11622081732
139538.3530740298
143174.06245698908
146397.4271761023
102212.6766704604
102791.85246410119
103633.12075844094
104790.31968602193
106319.66739692542
108272.07072411344
110682.78449235272
113561.07969829062
116880.97997287611
120576.87826563367
124544.86585866741
128653.63571319309
132759.32147748402
136723.1299667414
140418.60507498207
143715.30973062915
102625.69477169859
103284.12162334785
104232.53718524666
105521.8038278678
107202.2412761451
109314.88338434644
111881.43231114557
114894.216805105
118309.44355028811
122045.25209347803
125986.6022357747
129997.55823592439
133934.62437987927
137655.37282174992
141002.5120965464
103090.94252044048
103832.19728849141
104891.05268281234
106313.41379148612
108141.73217081437
110405.39669129264
113111.31438481896
116234.1865921955
119713.41095765523
123452.56731757904
127327.02524718996
131194.35460795008
134902.95353008973
138271.96929650463
103609.82600510119
104436.26563078942
105606.89624229768
107160.83731326417
109130.6659987091
111532.5273085264
114357.07768337749
117561.79749932578
121069.64828177885
124769.95942490626
128526.99101985797
132183.61014625238
135542.20511313257
104182.7263201436
105095.23540637469
106377.02551932354
108058.26443982328
110159.55807946244
112682.48933609606
115600.45453463643
118853.64923042736
122347.59586644331
125956.06267431946
129521.42527969432
132835.62755628937
104808.90093854992
105806.55277691135
107196.2805223069
108997.10144166813
111216.01945253357
113838.1234189708
116818.66982732483
120078.9632504171
123504.24200099004
126941.68015178008
130176.8836002943
105486.14301869815
106565.97594790754
108057.5025324398
109966.49434792864
112284.17650428848
114977.35292527231
117981.05375531371
121193.66594197121
124468.94099156762
127591.65545858943
106210.61846427365
107367.08906686083
108950.77628702667
110951.75217874337
113343.06720252335
116070.23853376851
119043.50431866135
122125.83733647555
125104.74074672716
106976.3437094164
108200.80059216976
109862.6010897972
111933.06882758685
114363.6259364236
117073.57146358011
119934.75067343409
122740.76584536451
107774.67363486456
109054.48193777895
110774.21098646807
112883.0075095883
115304.13650533784
117917.5181343723
120523.10387643243
108593.56312033853
109910.54294662371
111659.83507028302
113761.32552268103
116097.60471727638
118475.09916675084
109416.04742000939
110744.02645421521
112480.69573709632
114503.57574989797
116622.03260408853
110217.92205148182
111518.12462800292
113175.73572027008
114994.76261203442
110963.42527694035
112174.41690212522
113635.60117362911
111595.7176639096
112608.56464684024
112014.06751043553
SCALARS T float 1
LOOKUP_TABLE default
300.08863045443275
300.0883423304467
300.1267069794179
300.08651255007004
300.1265530048209
300.1845932228419
300.0833964936554
300.12396692961005
300.18467550214154
300.2726606754032
300.0792409991036
300.11941073100337
300.1808202006208
300.273129196826
300.406945463042
300.07429632646495
300.1133045456687
300.1738430408199
300.26709406649877
300.40801419910684
300.6125962739549
300.0688087523973
300.1060523892256
300.16448283197985
300.2560081370976
300.39813141962674
300.61448847392785
300.9298700468672
300.0630085736171
300.0980365656274
300.15342905563205
300.2412015110794
300.37996067015587
300.59756660365764
300.93244942429646
301.425173407115
300.05709976094914
300.0896038072971
300.1413094550577
300.223886400089
300.3559565892255
300.5669191311914
300.90203592464854
301.42638671033035
302.213227084264
300.0512536285724
300.081053555292
300.128671182004
300.20512330665366
300.3282911191452
300.5271970190791
300.84885283766295
301.3686282779382
302.20306091254855
303.5067036893426
300.04560658637234
300.07263165753915
300.11596829568975
300.1857940139133
300.2987747833572
300.4823312627891
300.781912109941
301.2735788249037
302.08635133910525
303.4440436828933
305.74350360014915
300.04026111706577
300.06452961053685
300.10355942162045
300.16659585185346
300.26883326042116
300.4354059982714
300.7083262900395
301.1589198270259
301.9113355585816
303.19227784399334
305.46406030568033
309.9608600125006
300.03528903703506
300.0568880523659
300.09171271355893
300.148050384226
300.23952577368556
300.38868852236004
300.6332513125937
301.03728778029483
301.71234711047214
302.86121353940104
304.8876908405611
308.78791927783516
319.00463873764215
300.0307359118549
300.0498028369466
300.08061618043104
300.1305259339171
300.2115956174316
300.3437427591777
300.560158535312
300.91691098570016
301.5106433646676
302.5134181817357
304.2508253075283
307.42327860309797
314.0035953417396
326.84773767720475
300.0266259685416
300.04333236626866
300.0703904896376
300.1142627782818
300.1855255551559
300.30157136894445
300.4912180932537
300.8027285261104
301.3181677250926
302.1801752265254
303.6457369384367
306.20906331251376
310.92419469084365
319.5757497444951
332.7011886492363
300.0229670074187
300.03750511779293
300.061102109541
300.0993992278368
300.1615970517358
300.26275455425366
300.42765542330505
300.6974114315948
301.1409384066669
301.8753273318377
303.10315727802237
305.1838274169586
308.767273477702
314.9672961595174
324.6676559669942
337.2746163437303
300.01975491866244
300.03232700774737
300.05277580552564
300.08599605010454
300.1399414213157
300.2275651640191
300.3700393744827
300.6021495194921
300.9814188191021
301.60364423070286
302.6293578386467
304.32796500835275
307.1420624902541
311.81278513436627
319.1009468325822
329.1112605919232
340.9224511847578
300.016977748172
300.02778781961155
300.0454059630471
300.07405681964843
300.12058082512306
300.19606375484733
300.3185049940953
300.5172088934063
300.8400382510779
301.365349487303
302.2212208799409
303.61461188016136
305.86715852633506
309.505720979046
315.12978194523964
323.04739192720353
332.9273686220373
343.8529299658586
300.01461931639875
300.0238669738164
300.0389661671767
300.0635460624184
300.1034639785608