# vtk DataFile Version 2.0
JuliaCFD
ASCII
DATASET UNSTRUCTURED_GRID

POINTS 1900 float
0.0 0.0 0.005
0.0 0.0416667 0.005
0.0 0.0833333 0.005
0.0 0.125 0.005
0.0 0.166667 0.005
0.0 0.208333 0.005
0.0 0.25 0.005
0.0 0.291667 0.005
0.0 0.333333 0.005
0.0 0.375 0.005
0.0 0.416667 0.005
0.0 0.458333 0.005
0.0 0.5 0.005
0.0 0.541667 0.005
0.0 0.583333 0.005
0.0 0.625 0.005
0.0 0.666667 0.005
0.0 0.708333 0.005
0.0 0.75 0.005
0.0 0.791667 0.005
0.0 0.833333 0.005
0.0 0.875 0.005
0.0 0.916667 0.005
0.0 0.958333 0.005
0.0 1.0 0.005
0.0409575 0.0 0.005
0.0409401 0.0416667 0.005
0.0409227 0.0833333 0.005
0.0409054 0.125 0.005
0.040888 0.166667 0.005
0.0408706 0.208333 0.005
0.0408532 0.25 0.005
0.0408359 0.291667 0.005
0.0408185 0.333333 0.005
0.0408011 0.375 0.005
0.0407838 0.416667 0.005
0.0407664 0.458333 0.005
0.040749 0.5 0.005
0.0407316 0.541667 0.005
0.0407143 0.583333 0.005
0.0406969 0.625 0.005
0.0406795 0.666667 0.005
0.0406621 0.708333 0.005
0.0406448 0.75 0.005
0.0406274 0.791667 0.005
0.04061 0.833333 0.005
0.0405927 0.875 0.005
0.0405753 0.916667 0.005
0.0405579 0.958333 0.005
0.0405405 1.0 0.005
0.0819149 0.0 0.005
0.0818802 0.0416667 0.005
0.0818455 0.0833333 0.005
0.0818107 0.125 0.005
0.081776 0.166667 0.005
0.0817412 0.208333 0.005
0.0817065 0.25 0.005
0.0816717 0.291667 0.005
0.081637 0.333333 0.005
0.0816022 0.375 0.005
0.0815675 0.416667 0.005
0.0815328 0.458333 0.005
0.081498 0.5 0.005
0.0814633 0.541667 0.005
0.0814285 0.583333 0.005
0.0813938 0.625 0.005
0.081359 0.666667 0.005
0.0813243 0.708333 0.005
0.0812895 0.75 0.005
0.0812548 0.791667 0.005
0.0812201 0.833333 0.005
0.0811853 0.875 0.005
0.0811506 0.916667 0.005
0.0811158 0.958333 0.005
0.0810811 1.0 0.005
0.122872 0.0 0.005
0.12282 0.0416667 0.005
0.122768 0.0833333 0.005
0.122716 0.125 0.005
0.122664 0.166667 0.005
0.122612 0.208333 0.005
0.12256 0.25 0.005
0.122508 0.291667 0.005
0.122455 0.333333 0.005
0.122403 0.375 0.005
0.122351 0.416667 0.005
0.122299 0.458333 0.005
0.122247 0.5 0.005
0.122195 0.541667 0.005
0.122143 0.583333 0.005
0.122091 0.625 0.005
0.122039 0.666667 0.005
0.121986 0.708333 0.005
0.121934 0.75 0.005
0.121882 0.791667 0.005
0.12183 0.833333 0.005
0.121778 0.875 0.005
0.121726 0.916667 0.005
0.121674 0.958333 0.005
0.121622 1.0 0.005
0.16383 0.0 0.005
0.16376 0.0416667 0.005
0.163691 0.0833333 0.005
0.163621 0.125 0.005
0.163552 0.166667 0.005
0.163482 0.208333 0.005
0.163413 0.25 0.005
0.163343 0.291667 0.005
0.163274 0.333333 0.005
0.163204 0.375 0.005
0.163135 0.416667 0.005
0.163066 0.458333 0.005
0.162996 0.5 0.005
0.162927 0.541667 0.005
0.162857 0.583333 0.005
0.162788 0.625 0.005
0.162718 0.666667 0.005
0.162649 0.708333 0.005
0.162579 0.75 0.005
0.16251 0.791667 0.005
0.16244 0.833333 0.005
0.162371 0.875 0.005
0.162301 0.916667 0.005
0.162232 0.958333 0.005
0.162162 1.0 0.005
0.204787 0.0 0.005
0.2047 0.0416667 0.005
0.204614 0.0833333 0.005
0.204527 0.125 0.005
0.20444 0.166667 0.005
0.204353 0.208333 0.005
0.204266 0.25 0.005
0.204179 0.291667 0.005
0.204092 0.333333 0.005
0.204006 0.375 0.005
0.203919 0.416667 0.005
0.203832 0.458333 0.005
0.203745 0.5 0.005
0.203658 0.541667 0.005
0.203571 0.583333 0.005
0.203484 0.625 0.005
0.203398 0.666667 0.005
0.203311 0.708333 0.005
0.203224 0.75 0.005
0.203137 0.791667 0.005
0.20305 0.833333 0.005
0.202963 0.875 0.005
0.202876 0.916667 0.005
0.20279 0.958333 0.005
0.202703 1.0 0.005
0.245745 0.0 0.005
0.245641 0.0416667 0.005
0.245536 0.0833333 0.005
0.245432 0.125 0.005
0.245328 0.166667 0.005
0.245224 0.208333 0.005
0.245119 0.25 0.005
0.245015 0.291667 0.005
0.244911 0.333333 0.005
0.244807 0.375 0.005
0.244703 0.416667 0.005
0.244598 0.458333 0.005
0.244494 0.5 0.005
0.24439 0.541667 0.005
0.244286 0.583333 0.005
0.244181 0.625 0.005
0.244077 0.666667 0.005
0.243973 0.708333 0.005
0.243869 0.75 0.005
0.243764 0.791667 0.005
0.24366 0.833333 0.005
0.243556 0.875 0.005
0.243452 0.916667 0.005
0.243347 0.958333 0.005
0.243243 1.0 0.005
0.286702 0.0 0.005
0.286581 0.0416667 0.005
0.286459 0.0833333 0.005
0.286337 0.125 0.005
0.286216 0.166667 0.005
0.286094 0.208333 0.005
0.285973 0.25 0.005
0.285851 0.291667 0.005
0.285729 0.333333 0.005
0.285608 0.375 0.005
0.285486 0.416667 0.005
0.285365 0.458333 0.005
0.285243 0.5 0.005
0.285121 0.541667 0.005
0.285 0.583333 0.005
0.284878 0.625 0.005
0.284757 0.666667 0.005
0.284635 0.708333 0.005
0.284513 0.75 0.005
0.284392 0.791667 0.005
0.28427 0.833333 0.005
0.284149 0.875 0.005
0.284027 0.916667 0.005
0.283905 0.958333 0.005
0.283784 1.0 0.005
0.32766 0.0 0.005
0.327521 0.0416667 0.005
0.327382 0.0833333 0.005
0.327243 0.125 0.005
0.327104 0.166667 0.005
0.326965 0.208333 0.005
0.326826 0.25 0.005
0.326687 0.291667 0.005
0.326548 0.333333 0.005
0.326409 0.375 0.005
0.32627 0.416667 0.005
0.326131 0.458333 0.005
0.325992 0.5 0.005
0.325853 0.541667 0.005
0.325714 0.583333 0.005
0.325575 0.625 0.005
0.325436 0.666667 0.005
0.325297 0.708333 0.005
0.325158 0.75 0.005
0.325019 0.791667 0.005
0.32488 0.833333 0.005
0.324741 0.875 0.005
0.324602 0.916667 0.005
0.324463 0.958333 0.005
0.324324 1.0 0.005
0.368617 0.0 0.005
0.368461 0.0416667 0.005
0.368305 0.0833333 0.005
0.368148 0.125 0.005
0.367992 0.166667 0.005
0.367835 0.208333 0.005
0.367679 0.25 0.005
0.367523 0.291667 0.005
0.367366 0.333333 0.005
0.36721 0.375 0.005
0.367054 0.416667 0.005
0.366897 0.458333 0.005
0.366741 0.5 0.005
0.366585 0.541667 0.005
0.366428 0.583333 0.005
0.366272 0.625 0.005
0.366116 0.666667 0.005
0.365959 0.708333 0.005
0.365803 0.75 0.005
0.365647 0.791667 0.005
0.36549 0.833333 0.005
0.365334 0.875 0.005
0.365178 0.916667 0.005
0.365021 0.958333 0.005
0.364865 1.0 0.005
0.409575 0.0 0.005
0.409401 0.0416667 0.005
0.409227 0.0833333 0.005
0.409054 0.125 0.005
0.40888 0.166667 0.005
0.408706 0.208333 0.005
0.408532 0.25 0.005
0.408359 0.291667 0.005
0.408185 0.333333 0.005
0.408011 0.375 0.005
0.407838 0.416667 0.005
0.407664 0.458333 0.005
0.40749 0.5 0.005
0.407316 0.541667 0.005
0.407143 0.583333 0.005
0.406969 0.625 0.005
0.406795 0.666667 0.005
0.406621 0.708333 0.005
0.406448 0.75 0.005
0.406274 0.791667 0.005
0.4061 0.833333 0.005
0.405927 0.875 0.005
0.405753 0.916667 0.005
0.405579 0.958333 0.005
0.405405 1.0 0.005
0.450532 0.0 0.005
0.450341 0.0416667 0.005
0.45015 0.0833333 0.005
0.449959 0.125 0.005
0.449768 0.166667 0.005
0.449577 0.208333 0.005
0.449386 0.25 0.005
0.449195 0.291667 0.005
0.449003 0.333333 0.005
0.448812 0.375 0.005
0.448621 0.416667 0.005
0.44843 0.458333 0.005
0.448239 0.5 0.005
0.448048 0.541667 0.005
0.447857 0.583333 0.005
0.447666 0.625 0.005
0.447475 0.666667 0.005
0.447284 0.708333 0.005
0.447093 0.75 0.005
0.446901 0.791667 0.005
0.44671 0.833333 0.005
0.446519 0.875 0.005
0.446328 0.916667 0.005
0.446137 0.958333 0.005
0.445946 1.0 0.005
0.49149 0.0 0.005
0.491281 0.0416667 0.005
0.491073 0.0833333 0.005
0.490864 0.125 0.005
0.490656 0.166667 0.005
0.490447 0.208333 0.005
0.490239 0.25 0.005
0.49003 0.291667 0.005
0.489822 0.333333 0.005
0.489613 0.375 0.005
0.489405 0.416667 0.005
0.489197 0.458333 0.005
0.488988 0.5 0.005
0.48878 0.541667 0.005
0.488571 0.583333 0.005
0.488363 0.625 0.005
0.488154 0.666667 0.005
0.487946 0.708333 0.005
0.487737 0.75 0.005
0.487529 0.791667 0.005
0.48732 0.833333 0.005
0.487112 0.875 0.005
0.486903 0.916667 0.005
0.486695 0.958333 0.005
0.486486 1.0 0.005
0.531954 0.00563435 0.005
0.531749 0.0470663 0.005
0.531544 0.0884982 0.005
0.531338 0.12993 0.005
0.531133 0.171362 0.005
0.530928 0.212794 0.005
0.530722 0.254226 0.005
0.530517 0.295658 0.005
0.530312 0.33709 0.005
0.530107 0.378521 0.005
0.529901 0.419953 0.005
0.529696 0.461385 0.005
0.529491 0.502817 0.005
0.529285 0.544249 0.005
0.52908 0.585681 0.005
0.528875 0.627113 0.005
0.528669 0.668545 0.005
0.528464 0.709977 0.005
0.528259 0.751409 0.005
0.528054 0.79284 0.005
0.527848 0.834272 0.005
0.527643 0.875704 0.005
0.527438 0.917136 0.005
0.527232 0.958568 0.005
0.527027 1.0 0.005
0.572289 0.0127465 0.005
0.572093 0.0538821 0.005
0.571896 0.0950177 0.005
0.571699 0.136153 0.005
0.571502 0.177289 0.005
0.571306 0.218424 0.005
0.571109 0.25956 0.005
0.570912 0.300695 0.005
0.570715 0.341831 0.005
0.570519 0.382967 0.005
0.570322 0.424102 0.005
0.570125 0.465238 0.005
0.569928 0.506373 0.005
0.569732 0.547509 0.005
0.569535 0.588644 0.005
0.569338 0.62978 0.005
0.569142 0.670916 0.005
0.568945 0.712051 0.005
0.568748 0.753187 0.005
0.568551 0.794322 0.005
0.568355 0.835458 0.005
0.568158 0.876593 0.005
0.567961 0.917729 0.005
0.567764 0.958864 0.005
0.567568 1.0 0.005
0.612625 0.0198587 0.005
0.612436 0.0606979 0.005
0.612248 0.101537 0.005
0.61206 0.142376 0.005
0.611872 0.183216 0.005
0.611684 0.224055 0.005
0.611496 0.264894 0.005
0.611307 0.305733 0.005
0.611119 0.346572 0.005
0.610931 0.387412 0.005
0.610743 0.428251 0.005
0.610555 0.46909 0.005
0.610366 0.509929 0.005
0.610178 0.550769 0.005
0.60999 0.591608 0.005
0.609802 0.632447 0.005
0.609614 0.673286 0.005
0.609425 0.714125 0.005
0.609237 0.754965 0.005
0.609049 0.795804 0.005
0.608861 0.836643 0.005
0.608673 0.877482 0.005
0.608484 0.918322 0.005
0.608296 0.959161 0.005
0.608108 1.0 0.005
0.65296 0.0269708 0.005
0.65278 0.0675137 0.005
0.652601 0.108057 0.005
0.652421 0.148599 0.005
0.652241 0.189142 0.005
0.652062 0.229685 0.005
0.651882 0.270228 0.005
0.651702 0.310771 0.005
0.651523 0.351314 0.005
0.651343 0.391857 0.005
0.651164 0.4324 0.005
0.650984 0.472943 0.005
0.650804 0.513485 0.005
0.650625 0.554028 0.005
0.650445 0.594571 0.005
0.650265 0.635114 0.005
0.650086 0.675657 0.005
0.649906 0.7162 0.005
0.649726 0.756743 0.005
0.649547 0.797286 0.005
0.649367 0.837828 0.005
0.649188 0.878371 0.005
0.649008 0.918914 0.005
0.648828 0.959457 0.005
0.648649 1.0 0.005
0.693295 0.034083 0.005
0.693124 0.0743295 0.005
0.692953 0.114576 0.005
0.692782 0.154823 0.005
0.692611 0.195069 0.005
0.69244 0.235316 0.005
0.692269 0.275562 0.005
0.692098 0.315809 0.005
0.691926 0.356055 0.005
0.691755 0.396302 0.005
0.691584 0.436548 0.005
[...]
CELL_DATA 888
SCALARS P float 1
LOOKUP_TABLE default
100147.12139960134
100146.77253380277
100207.2055617169
100144.36849941578
100207.07785851859
100294.5271582513
100140.24048943905
100203.74042604383
100294.8004644976
100421.82713530604
100134.70087945106
100197.79062597065
100289.95841508824
100422.78361763284
100608.11379091108
100128.0637462124
100189.7574994941
100281.0421858285
100415.45061170297
100610.20831615273
100882.11460671888
100120.6388904756
100180.14422495816
100268.97002750172
100401.64723404699
100598.63061808594
100886.02495198265
101288.15352168199
100112.71869462111
100169.42745814411
100254.5894728002
100382.99716333715
100576.63971095675
100866.94073722046
101294.61142687936
101896.998266996
100104.56600436389
100158.0435126737
100238.6731630256
100360.96646508921
100547.17123471586
100830.93417434071
101261.57039708333
101905.58652105658
102828.46815880641
100096.4062973379
100146.375195513
100221.90136417352
100336.84131671063
100512.80626840418
100783.45149943694
101200.9277394244
101844.88812398844
102832.02018628291
104305.96733116085
100088.42450474128
100134.74401974218
100204.84849921333
100311.70378955142
100475.70771524636
100729.0834535453
101123.02677131513
101739.56291447522
102712.23056793754
104266.74965982059
106811.40780317479
100080.76560105581
100123.40855627904
100187.97992371143
100286.4268613747
100437.60362476688
100671.46273424315
101036.04226078503
101609.55835548569
102523.01970937623
104010.19362976299
106557.57557218443
111603.24308382244
100073.53795868311
100112.56771586525
100171.65648360444
100261.68292762905
100399.80868193509
100613.30963840208
100945.97608004327
101469.21239267243
102302.6552432847
103658.15996861551
105960.89806364046
110342.48304125534
122770.40809260862
100066.81816006805
100102.36712352945
100156.14525333827
100237.96795458878
100363.2791932771
100556.55756723332
100856.96903105489
101328.03281354281
102075.070217397
103280.05794149567
105285.76225034638
108867.40950211354
116514.50486111421
133127.9860143729
100060.65650106328
100092.9071488842
100141.63335890356
100215.62843900704
100328.67214471388
100502.50614131131
100771.71739407354
101191.9271337767
101854.07378736557
102911.07949627994
104634.41303395822
107560.44276437383
112951.34657494875
123411.11172704522
141256.58889022146
100055.08260069806
100084.25130638047
100128.24245506905
100194.88983259817
100296.40985461517
100451.97132953956
100691.85568453673
101064.29950755704
101647.0262022647
102567.51009263418
104041.40916811548
106454.55948626509
110553.00124998776
117804.32136774549
130014.45836610252
147861.16672291365
100050.1106371855
100076.43467082307
100116.0427434046
100175.8837701351
100266.73620402026
100405.410179038
100618.266393265
100946.89127056724
101457.37328147648
102255.79437026658
103515.04933654694
105523.67601688218
108774.90787840805
114175.59010181857
122947.54023538709
136036.27652265175
153318.1192084323
100045.74413802272
100069.47128863455
100105.06590215147
100158.67084430906
100239.7619358903
100363.02561051285
100551.32237744874
100840.37969000413
101286.26600285972
101977.36529825385
103053.66903347187
104737.88701329772
107382.5207203993
111599.54605837628
118222.77531021093
128054.7101616218
141427.38895523988
157857.41402851776
100041.98033777483
100063.36098226579
100095.31617751678
100143.26152765915
100215.50542641392
100324.84465144547
100491.05582134322
100744.77391457262
101133.5423157315
101731.16754084073
102652.0379246721
104072.19897896028
106257.25099845632
109650.24757119725
114847.48553818696
122476.02632186217
132950.19365749066
146210.96867992834
161637.81312886352
100038.81404472773
100058.09539577638
100086.77988749322
100129.63194800908
100193.92160086748
100290.77953188513
100437.2873651712
100659.69272552144
100998.32268104331
101514.9914708797
102303.89446923441
103506.67348555704
105330.7156760923
108113.29130296955
112302.72284673523
118391.177653938
126768.91361444507
137543.65479612467
150429.99614974225
164778.95376165461
100036.24150168723
100053.66344334905
100079.4341856748
100117.73841088882
100174.92796586035
100260.67196731984
100389.71284047619
100584.53601918589
100879.37886230179
101326.1672076673
102002.97524854468
103025.286894143
104558.98040939741
106869.76264136918
110308.49170102431
115271.58113561023
122107.88739117768
130984.53391814975
141793.30749630806
154131.95264178904
167375.85346016893
100034.26477239636
100050.05684225974
100073.25442176119
100107.52803420945
100158.4212390391
100234.32698826196
100347.96460070176
100518.60034652002
100775.34315160515
101161.93464234498
101743.45406562745
102615.00598873985
103911.54082599377
105847.1171055595
108704.28049606473
112810.34808393446
118475.96955212428
125892.63979470654
135044.153179386
145684.2750773256
157363.67217332096
169507.25072204036
100032.89763383934
100047.27683188839
100068.22213839211
100098.9501483139
100144.2949399166
100211.53792784545
100311.65314987094
100461.1584488279
100684.83680763766
101019.64174119307
101520.0822010406
102265.09356227065
103365.80295787015
104997.28060223687
107391.43912997529
110823.19252198242
115570.31679608999
121835.02168958826
129661.30698709296
138897.082076989
149217.20907148346
160169.98300479
171240.38404640605
100032.17556592198
100045.34388998098
100064.33514212459
100091.96677413731
100132.45188917502
100192.1059676827
100280.39806142403
100411.50118833139
100606.54902400408
100896.84293177107
101328.22806340577
101966.63456704277
102904.39451718859
104286.23176228143
106304.74171394408
109193.37455585068
113200.66374438503
118531.62542915076
125274.31385564736
133348.92831305446
142512.16714156148
152402.7240603306
162593.45846511633
172633.85618602444
100044.3146852982
100061.62240696159
100086.56737717349
100122.82014970534
100175.85727827094
100253.8514512243
100368.97433565106
100539.27577605502
100791.3346896998
101163.85194436066
101712.19073419801
102513.60071904684
103688.58594488777
105398.42643115544
107842.47249006279
111242.47717754895
115800.24211882659
121635.47506080841
128729.31370803273
136907.03865158715
145871.73368415632
155256.3994122521
164673.87763748685
173736.25808091444
100060.17021384426
100082.79047515849
100115.37204333783
100162.66291216204
100231.71870552743
100333.00002498757
100481.9459258722
100701.17902993233
101023.47729434188
101495.53203318961
102182.34519004292
103184.81135309856
104638.72663897075
106714.80382464483
109610.04269832057
113518.01208205988
118579.13412995929
124825.1093202211
132145.71189763997
140300.41706015056
148968.28157180556
157797.56124877027
166447.75598665889
174592.57341331497
100080.7616745987
100110.15562970626
100152.4649419707
100213.78013284862
100303.09740912353
100433.64058420974
100624.70474823411
100904.1332550135
101311.45629213873
101901.61839303879
102759.47631681224
103999.79832432474
105768.99723453788
108241.22213809083
111598.25602699794
115991.44968312714
121491.8274184398
128048.53026677856
135479.57164828439
143504.8390925221
151801.50522631186
160046.8835703934
167949.8699101482
175236.95435846897
100107.34739326361
100145.31876487935
100199.92745476658
100278.91135186449
100393.60854495026
100560.50598203612
100803.31672720939
101155.61841226587
101664.0396449808
102400.20279941414
103461.39090349594
104973.28485963191
107089.08886080874
109976.57855011156
113790.16328552157
118628.81542957205
124492.77420665021
131259.45387602234
138695.9425491549
146504.7515353819
154376.47688505473
162026.30265448266
169208.7512614518
175703.44598638453
100141.46606247844
100190.21892145187
100260.25383937397
100361.29544441098
100507.45050946127
100718.95847138415
101024.42355944205
101463.55130611871
102096.96752405663
103007.35054191161
104302.63590378067
106117.02045564677
108603.32312658464
111912.95826232385
116162.53598866635
121393.22015456803
127538.39149873226
134418.1671332593
141768.20537557514
149291.3940843535
156701.95502687077
163756.71868040293
170254.1801782578
176017.03534658268
100184.97958706308
100247.17937702706
100336.39644735864
100464.70734046923
100649.41412942368
100914.94071595006
101295.19295142124
101841.6373770283
102624.66602341617
103737.00374501769
105295.85708605
107438.8613377371
110310.41631610533
114036.15197490115
118687.46001388051
124246.63161328406
130588.4698314485
137491.26240619025
144676.68397685888
151860.47123114284
158788.68359927056
165258.2664491281
171108.80780184036
176204.64619020396
100240.11804437803
100318.95131629078
100431.80511541097
100593.4791831638
100824.86447799878
101154.97431283818
101627.60360939222
102302.78959110797
103260.21393621726
104601.9911154395
106451.04396459645
108942.24272867567
112203.5135650417
116326.68896862655
121333.87939825411
127151.59195164533
133606.775769598
140451.37303415377
147407.55539766408
154212.83901277953
160648.77846469698
166550.74184750818
171796.2038581579
176281.2649050512
100309.5227655138
100408.75576259472
100550.45808982498
100752.50660157346
101039.76964001065
101449.56849654527
102033.19061931671
102859.13710305175
104016.20058955876
105613.43348662417
107774.83001522857
110625.8722435649
114270.42201062606
118760.80535603354
124069.03594901333
130072.16419187056
136561.49656549856
143277.0379143348
149951.88512947827
156351.432517159
162294.5368680319
167652.51341650233
172334.84255341586
176270.33589836388
100396.28993291358
100520.32172803704
100696.88768548764
100947.30083815058
101303.40883443778
101809.05684848699
102523.14202182178
103522.74885374385
104904.15297615764
106779.98514320953
109270.02049396608
112483.62045367488
116494.30153714637
121311.57510798589
126859.75399531549
132975.05362482293
139425.39205634556
145950.46366969662
152303.906492154
158282.19297423563
163739.2115834627
168580.1208980768
172743.07108473682
176183.14366892737
100504.01117613162
100657.92274636032
100876.24281468055
101186.14252922116
101625.09047493717
102243.72061540313
103108.85428152514
104305.14901517845
105933.95220192653
108107.36385940458
110935.2947574933
114504.7772442883
118854.30722765706
123949.99705287728
129673.44257794498
135829.38151383397
142175.41677212977
148459.86594639192
154461.69108292073
160010.97890119627
164994.7788694437
169348.17265348323
173036.22948702215
176038.81025028403
100636.81835210268
100826.45056612205
101096.02161609153
101477.47002079172
102014.25809873604
102764.22632756457
103801.53909526282
105216.75503518534
107113.23534037427
109597.88953885633
112765.05677089447
116674.27743577855
121326.42705155656
126645.95028433055
132478.81456653858
138608.61566597628
144791.67825367316
150794.54933495296
156424.4243574689
161544.08891418367
166072.58594976622
169971.2981154378
173230.32708043774
175856.30144135572
100799.46073448885
101032.83426109898
101363.9603598599
101829.99208411726
102480.86205671309
103381.3279807775
104611.80276064527
106266.45086801199
108446.93616204627
111250.07137574111
114749.49235045609
118973.32310445912
123884.1648340475
129369.06758357566
135245.78150314887
141287.93394273747
147258.8449968419
152947.69497089717
158192.7934740134
162888.45630449167
166982.44450408206
170461.84278299828
173341.1949972997
175670.95481212044
100998.55486537017
101284.30482104093
101688.16000887519
102252.99322739219
103035.10430082773
104105.4924590027
105549.14657876185
107460.9881155371
109936.82136733833
113058.58812265545
116874.67201496818
121379.77275957009
126499.54867241275
132088.96197640043
137947.06959406813
143845.30427100588
149562.23155162396
154913.5852743765
159767.61454468686
164049.4070947329
167733.35654713723
170831.28399322726
173390.07522044334
175527.0709421813
101241.03505612025
101588.50510860416
102077.33554676593
102756.13378807607
103687.17381791405
104946.49821220654
106621.50332930277
108804.50719776517
111581.15863900368
115013.98504245677
119122.96668006506
123868.417457215
129143.00802669331
134776.2853319142
140556.58481495784
146261.68059771348
151690.43778144332
156686.82918363114
161148.90445546896
165030.3960903504
168330.82442001774
171088.26633087697
173398.35806180033
101534.28824511328
101953.69899759447
102540.63867353927
103349.20362547197
104446.83497810997
105912.98491941635
107834.76585691478
110298.13421797765
113374.41897074207
117102.89585457912
121473.20717309919
126412.76935167421
131785.0073154598
137402.2103214658
143050.0417724309
148518.94151125327
153631.68641294588
158260.78249561254
162334.00301690074
165830.61361558587
168772.99140649932
171232.02538929222
101886.31494029479
102388.64273607646
103087.46246893147
104041.81812870361
105323.04822291616
107011.94318233061
109192.1814911501
111939.59259771102
115307.19015670092
119308.15557341852
123901.22376215085
128983.44463587635
134395.1236362935
139938.73254630796
145403.8682006644
150599.2243455845
155373.49956299836
159627.65213658492
163315.08008940026
166437.7240316965
169037.1231113733
102305.61939618501
102902.38099420707
103727.16995146229
104843.01908002146
106323.53513532324
108248.22595659683
110694.0200852502
113722.78043309932
117365.70909264873
121608.42923831062
126379.47371271292
131549.5717602868
136942.5983922685
142357.36346447293
147594.2867482586
152483.71399597707
156900.2682657097
160770.9088087843
164070.21184643713
166808.86379428866
102801.04364626459
103504.01989622298
104468.74607578792
105760.88344973518
107454.23232360132
109624.08641292327
112337.09155391209
115637.68503519673
119532.69308894372
123979.2384170198
128878.45966838955
134079.36722507514
139395.72886518197
144629.10374120617
149596.14598044238
154149.23229129112
158188.31820211562
161658.21937231938
164536.67841747458
103381.51183440242
104202.42661967056
105320.41462761459
106802.07039025026
108718.7945727972
111138.58435761041
114114.30286415786
117669.67538316957
121786.10042234205
126392.57946071352
131365.48744692924
136538.56138947685
141720.99648455987
146723.04934105833
151379.52132051068
155564.34298879703
159193.8767658935
162209.8348216492
104055.77655985253
105005.84220868672
106289.22309142599
107971.22283535948
110118.09825029389
112787.17314991383
116014.17221337653
119800.05172055145
124099.51379937957
128815.62439893074
133805.01017630423
138890.01211091626
143881.6289117111
148602.32155139814
152904.51501005035
156675.08687651766
159821.21979069698
104832.06030230907
105921.46930517217
107380.4515908239
109270.45568962427
111649.43134458023
114560.89805697738
118020.63619656608
122004.92450001267
126442.2947982666
131213.09933120114
136157.1741360288
141092.20134953503
145834.41451611338
150218.64837217377
154105.93796655178
157368.61534375814
105717.61027745156
106954.99089015769
108597.13337067726
110698.80538440269
113306.48150092625
116446.43095465307
120112.37951475887
124255.152933792
128778.5552548246
133542.7461362201
138376.32937371198
143095.8850639196
147523.40704756655
151497.0380252733
154857.0894452401
106718.24811368357
108109.96413225724
109939.43449142254
112251.46015179214
115077.82797976752
118424.79857627497
122262.40326947549
126515.70745042874
131066.06422086207
135756.97622837152
140409.36501533576
144838.08145554663
148863.9778061905
152296.84634210356
107837.81995254285
109387.24684670616
111403.70420339149
113918.89766026632
116946.71781587813
120471.07549972311
124436.79135452608
128744.53923529219
133255.137822218
137797.76043395823
142185.9733806202
146226.2691277788
149703.2300931259
109077.49105013584
110784.21288442798
112982.26733598376
115686.74170842327
118890.44642943703
122553.27556356014
126594.27310591232
130890.91621145282
135284.36217643466
139590.4010282875
143605.96407785034
147095.61340912522
110435.18430594617
112294.02406066669
114661.86022926614
117533.65297396002
120878.80915139278
124631.21373465488
128684.10804697181
132891.81454447986
137075.27705465816
141027.4817273243
144496.2522081823
111904.59122234874
113904.75972459328
116423.17158452011
119431.50172592787
122873.09029668133
126654.42349403484
130642.19045082176
134665.57322223272
138515.89982445986
141929.50949652045
113474.43011499329
115598.25927006382
118239.41729218476
121342.97804170035
124823.74055876026
128558.63015340202
132384.93274731803
136095.98470623104
139420.23758048963
115127.21962704457
117348.94279074545
120074.81832986746
123219.66732110531
126666.66549919001
130259.50777594603
133794.05504162435
136994.7623803153
116838.04221119256
119122.18911838242
121882.0913070623
124998.77504664216
128317.80815987069
131637.79309105547
134679.94929744423
118573.08691701853
120872.1064230825
123599.95374254494
126596.72070935051
129658.65720939978
132504.64170617983
120287.25140049952
122538.14545944617
125145.66004961338
127895.81431012948
130501.88679622825
121920.76815873364
124039.26662683705
126403.7102149626
128713.04444068657
123393.5261901801
125261.78732490969
127194.53748091498
124593.05307239486
126029.74856442369
125346.3645609337
SCALARS T float 1
LOOKUP_TABLE default
300.12698767878163
300.1266667885009
300.17933263810943
300.1245657268207
300.1791778056943
300.2558368131471
300.1209712187855
300.176234109004
300.2559745452498
300.3681858339277
300.11615516626847
300.17101978229766
300.25164931784974
300.3687972387728
300.5341396310772
300.11039143168097
300.1639972030664
300.243768043934
300.3621384919692
300.53547954375443
300.7811093160354
300.10395002424156
300.15560745308517
300.2331379585887
300.349803761278
300.5247521006082
300.7834542652993
301.1523102183514
300.0970853591135
300.1462682480351
300.2205069025817
300.3332314005128
300.50483707306074
300.7653542360875
301.15558893949
301.71796533081937
300.0900256278904
300.1363611305711
300.20655635141907
300.3137252465193
300.47835949210344
300.73223139150815
301.1234698135378
301.72019029504054
302.59756246794353
300.0829660419276
300.12621977276007
300.1918845267809
300.29242800231077
300.4476355354616
300.68900790446787
301.06670591762946
301.65985612123956
302.5887398771748
304.00929024973067
300.07606619737055
300.1161233060922
300.1769942637671
300.2702969747462
300.4146019733101
300.6398431516672
300.99474893166854
301.55952235207434
302.467975604705
303.94814250772066
306.3962343814815
300.0694507411642
300.10629517038427
300.1622905803811
300.24809950190024
300.38079678434764
300.58801567987746
300.91507495685414
301.4375965446783
302.2850352460223
303.68980459008105
306.1178321193085
310.79700201325977
300.06321243012155
300.09690630757837
300.1480853637735
300.22642167125514
300.3473792812645
300.5359590701875
300.8331381852528
301.30729235528787
302.07545503984716
303.3468095834847
305.5308733790174
309.6234770578177
320.0459197762729
300.05741642720676
300.0880810218218
300.1346075072875
300.20569126704993
300.31518237180404
300.48537982073975
300.75265341538085
301.17728722514016
301.86138661864857
302.98365127442435
304.8764309416154
308.24316991463763
315.0451115748096
328.0973084879702
300.0521051636494
300.0799042144827
300.12201564166344
300.18620309854833
300.2847687825074
300.4374031819641
300.67599038886306
301.052868776823
301.6554269224953
302.63292497907526
304.2495900060417
307.0047388805837
311.9478173067416
320.83653842976037
334.16320879855317
300.0473032595988
300.07242886719405
300.1104112689474
300.16814526816944
300.25649162018715
300.39271559828796
300.604539545654
300.9369802688715
301.46407360503525
302.3093697667585
303.68284060711693
305.9502746101502
309.7616836838573
316.21600213510317
326.15791157879835
338.95670621196194
300.04302209173443
300.06568346727687
300.0998513269871
300.1516239799867
300.23054652368313
300.3516823636279
300.5390074054972
300.8310268214661
301.2901466910739
302.0183807664299
303.1836016313373
305.0623463614788
308.10039196487503
313.03264488400316
320.5916898727072
330.84137777284104
342.83355057026006
300.0392639521399
300.0596785030181
300.09035965846607
300.1366840722162
300.2070132287534
300.3144451560399
300.47964571659264
300.73544816609814
301.1343466293451
301.76062878962466
302.7495322222555
304.31551691406213
306.7854272077369
310.6858640223053
316.59832141832993
324.7947603424905
334.9081365805499
346.0025218305113
300.036025815821
300.05441238783754
300.0819367618718