# vtk DataFile Version 2.0
JuliaCFD
ASCII
DATASET UNSTRUCTURED_GRID

POINTS 1900 float
0.0 0.0 0.005
0.0 0.0416667 0.005
0.0 0.0833333 0.005
0.0 0.125 0.005
0.0 0.166667 0.005
0.0 0.208333 0.005
0.0 0.25 0.005
0.0 0.291667 0.005
0.0 0.333333 0.005
0.0 0.375 0.005
0.0 0.416667 0.005
0.0 0.458333 0.005
0.0 0.5 0.005
0.0 0.541667 0.005
0.0 0.583333 0.005
0.0 0.625 0.005
0.0 0.666667 0.005
0.0 0.708333 0.005
0.0 0.75 0.005
0.0 0.791667 0.005
0.0 0.833333 0.005
0.0 0.875 0.005
0.0 0.916667 0.005
0.0 0.958333 0.005
0.0 1.0 0.005
0.0409575 0.0 0.005
0.0409401 0.0416667 0.005
0.0409227 0.0833333 0.005
0.0409054 0.125 0.005
0.040888 0.166667 0.005
0.0408706 0.208333 0.005
0.0408532 0.25 0.005
0.0408359 0.291667 0.005
0.0408185 0.333333 0.005
0.0408011 0.375 0.005
0.0407838 0.416667 0.005
0.0407664 0.458333 0.005
0.040749 0.5 0.005
0.0407316 0.541667 0.005
0.0407143 0.583333 0.005
0.0406969 0.625 0.005
0.0406795 0.666667 0.005
0.0406621 0.708333 0.005
0.0406448 0.75 0.005
0.0406274 0.791667 0.005
0.04061 0.833333 0.005
0.0405927 0.875 0.005
0.0405753 0.916667 0.005
0.0405579 0.958333 0.005
0.0405405 1.0 0.005
0.0819149 0.0 0.005
0.0818802 0.0416667 0.005
0.0818455 0.0833333 0.005
0.0818107 0.125 0.005
0.081776 0.166667 0.005
0.0817412 0.208333 0.005
0.0817065 0.25 0.005
0.0816717 0.291667 0.005
0.081637 0.333333 0.005
0.0816022 0.375 0.005
0.0815675 0.416667 0.005
0.0815328 0.458333 0.005
0.081498 0.5 0.005
0.0814633 0.541667 0.005
0.0814285 0.583333 0.005
0.0813938 0.625 0.005
0.081359 0.666667 0.005
0.0813243 0.708333 0.005
0.0812895 0.75 0.005
0.0812548 0.791667 0.005
0.0812201 0.833333 0.005
0.0811853 0.875 0.005
0.0811506 0.916667 0.005
0.0811158 0.958333 0.005
0.0810811 1.0 0.005
0.122872 0.0 0.005
0.12282 0.0416667 0.005
0.122768 0.0833333 0.005
0.122716 0.125 0.005
0.122664 0.166667 0.005
0.122612 0.208333 0.005
0.12256 0.25 0.005
0.122508 0.291667 0.005
0.122455 0.333333 0.005
0.122403 0.375 0.005
0.122351 0.416667 0.005
0.122299 0.458333 0.005
0.122247 0.5 0.005
0.122195 0.541667 0.005
0.122143 0.583333 0.005
0.122091 0.625 0.005
0.122039 0.666667 0.005
0.121986 0.708333 0.005
0.121934 0.75 0.005
0.121882 0.791667 0.005
0.12183 0.833333 0.005
0.121778 0.875 0.005
0.121726 0.916667 0.005
0.121674 0.958333 0.005
0.121622 1.0 0.005
0.16383 0.0 0.005
0.16376 0.0416667 0.005
0.163691 0.0833333 0.005
0.163621 0.125 0.005
0.163552 0.166667 0.005
0.163482 0.208333 0.005
0.163413 0.25 0.005
0.163343 0.291667 0.005
0.163274 0.333333 0.005
0.163204 0.375 0.005
0.163135 0.416667 0.005
0.163066 0.458333 0.005
0.162996 0.5 0.005
0.162927 0.541667 0.005
0.162857 0.583333 0.005
0.162788 0.625 0.005
0.162718 0.666667 0.005
0.162649 0.708333 0.005
0.162579 0.75 0.005
0.16251 0.791667 0.005
0.16244 0.833333 0.005
0.162371 0.875 0.005
0.162301 0.916667 0.005
0.162232 0.958333 0.005
0.162162 1.0 0.005
0.204787 0.0 0.005
0.2047 0.0416667 0.005
0.204614 0.0833333 0.005
0.204527 0.125 0.005
0.20444 0.166667 0.005
0.204353 0.208333 0.005
0.204266 0.25 0.005
0.204179 0.291667 0.005
0.204092 0.333333 0.005
0.204006 0.375 0.005
0.203919 0.416667 0.005
0.203832 0.458333 0.005
0.203745 0.5 0.005
0.203658 0.541667 0.005
0.203571 0.583333 0.005
0.203484 0.625 0.005
0.203398 0.666667 0.005
0.203311 0.708333 0.005
0.203224 0.75 0.005
0.203137 0.791667 0.005
0.20305 0.833333 0.005
0.202963 0.875 0.005
0.202876 0.916667 0.005
0.20279 0.958333 0.005
0.202703 1.0 0.005
0.245745 0.0 0.005
0.245641 0.0416667 0.005
0.245536 0.0833333 0.005
0.245432 0.125 0.005
0.245328 0.166667 0.005
0.245224 0.208333 0.005
0.245119 0.25 0.005
0.245015 0.291667 0.005
0.244911 0.333333 0.005
0.244807 0.375 0.005
0.244703 0.416667 0.005
0.244598 0.458333 0.005
0.244494 0.5 0.005
0.24439 0.541667 0.005
0.244286 0.583333 0.005
0.244181 0.625 0.005
0.244077 0.666667 0.005
0.243973 0.708333 0.005
0.243869 0.75 0.005
0.243764 0.791667 0.005
0.24366 0.833333 0.005
0.243556 0.875 0.005
0.243452 0.916667 0.005
0.243347 0.958333 0.005
0.243243 1.0 0.005
0.286702 0.0 0.005
0.286581 0.0416667 0.005
0.286459 0.0833333 0.005
0.286337 0.125 0.005
0.286216 0.166667 0.005
0.286094 0.208333 0.005
0.285973 0.25 0.005
0.285851 0.291667 0.005
0.285729 0.333333 0.005
0.285608 0.375 0.005
0.285486 0.416667 0.005
0.285365 0.458333 0.005
0.285243 0.5 0.005
0.285121 0.541667 0.005
0.285 0.583333 0.005
0.284878 0.625 0.005
0.284757 0.666667 0.005
0.284635 0.708333 0.005
0.284513 0.75 0.005
0.284392 0.791667 0.005
0.28427 0.833333 0.005
0.284149 0.875 0.005
0.284027 0.916667 0.005
0.283905 0.958333 0.005
0.283784 1.0 0.005
0.32766 0.0 0.005
0.327521 0.0416667 0.005
0.327382 0.0833333 0.005
0.327243 0.125 0.005
0.327104 0.166667 0.005
0.326965 0.208333 0.005
0.326826 0.25 0.005
0.326687 0.291667 0.005
0.326548 0.333333 0.005
0.326409 0.375 0.005
0.32627 0.416667 0.005
0.326131 0.458333 0.005
0.325992 0.5 0.005
0.325853 0.541667 0.005
0.325714 0.583333 0.005
0.325575 0.625 0.005
0.325436 0.666667 0.005
0.325297 0.708333 0.005
0.325158 0.75 0.005
0.325019 0.791667 0.005
0.32488 0.833333 0.005
0.324741 0.875 0.005
0.324602 0.916667 0.005
0.324463 0.958333 0.005
0.324324 1.0 0.005
0.368617 0.0 0.005
0.368461 0.0416667 0.005
0.368305 0.0833333 0.005
0.368148 0.125 0.005
0.367992 0.166667 0.005
0.367835 0.208333 0.005
0.367679 0.25 0.005
0.367523 0.291667 0.005
0.367366 0.333333 0.005
0.36721 0.375 0.005
0.367054 0.416667 0.005
0.366897 0.458333 0.005
0.366741 0.5 0.005
0.366585 0.541667 0.005
0.366428 0.583333 0.005
0.366272 0.625 0.005
0.366116 0.666667 0.005
0.365959 0.708333 0.005
0.365803 0.75 0.005
0.365647 0.791667 0.005
0.36549 0.833333 0.005
0.365334 0.875 0.005
0.365178 0.916667 0.005
0.365021 0.958333 0.005
0.364865 1.0 0.005
0.409575 0.0 0.005
0.409401 0.0416667 0.005
0.409227 0.0833333 0.005
0.409054 0.125 0.005
0.40888 0.166667 0.005
0.408706 0.208333 0.005
0.408532 0.25 0.005
0.408359 0.291667 0.005
0.408185 0.333333 0.005
0.408011 0.375 0.005
0.407838 0.416667 0.005
0.407664 0.458333 0.005
0.40749 0.5 0.005
0.407316 0.541667 0.005
0.407143 0.583333 0.005
0.406969 0.625 0.005
0.406795 0.666667 0.005
0.406621 0.708333 0.005
0.406448 0.75 0.005
0.406274 0.791667 0.005
0.4061 0.833333 0.005
0.405927 0.875 0.005
0.405753 0.916667 0.005
0.405579 0.958333 0.005
0.405405 1.0 0.005
0.450532 0.0 0.005
0.450341 0.0416667 0.005
0.45015 0.0833333 0.005
0.449959 0.125 0.005
0.449768 0.166667 0.005
0.449577 0.208333 0.005
0.449386 0.25 0.005
0.449195 0.291667 0.005
0.449003 0.333333 0.005
0.448812 0.375 0.005
0.448621 0.416667 0.005
0.44843 0.458333 0.005
0.448239 0.5 0.005
0.448048 0.541667 0.005
0.447857 0.583333 0.005
0.447666 0.625 0.005
0.447475 0.666667 0.005
0.447284 0.708333 0.005
0.447093 0.75 0.005
0.446901 0.791667 0.005
0.44671 0.833333 0.005
0.446519 0.875 0.005
0.446328 0.916667 0.005
0.446137 0.958333 0.005
0.445946 1.0 0.005
0.49149 0.0 0.005
0.491281 0.0416667 0.005
0.491073 0.0833333 0.005
0.490864 0.125 0.005
0.490656 0.166667 0.005
0.490447 0.208333 0.005
0.490239 0.25 0.005
0.49003 0.291667 0.005
0.489822 0.333333 0.005
0.489613 0.375 0.005
0.489405 0.416667 0.005
0.489197 0.458333 0.005
0.488988 0.5 0.005
0.48878 0.541667 0.005
0.488571 0.583333 0.005
0.488363 0.625 0.005
0.488154 0.666667 0.005
0.487946 0.708333 0.005
0.487737 0.75 0.005
0.487529 0.791667 0.005
0.48732 0.833333 0.005
0.487112 0.875 0.005
0.486903 0.916667 0.005
0.486695 0.958333 0.005
0.486486 1.0 0.005
0.531954 0.00563435 0.005
0.531749 0.0470663 0.005
0.531544 0.0884982 0.005
0.531338 0.12993 0.005
0.531133 0.171362 0.005
0.530928 0.212794 0.005
0.530722 0.254226 0.005
0.530517 0.295658 0.005
0.530312 0.33709 0.005
0.530107 0.378521 0.005
0.529901 0.419953 0.005
0.529696 0.461385 0.005
0.529491 0.502817 0.005
0.529285 0.544249 0.005
0.52908 0.585681 0.005
0.528875 0.627113 0.005
0.528669 0.668545 0.005
0.528464 0.709977 0.005
0.528259 0.751409 0.005
0.528054 0.79284 0.005
0.527848 0.834272 0.005
0.527643 0.875704 0.005
0.527438 0.917136 0.005
0.527232 0.958568 0.005
0.527027 1.0 0.005
0.572289 0.0127465 0.005
0.572093 0.0538821 0.005
0.571896 0.0950177 0.005
0.571699 0.136153 0.005
0.571502 0.177289 0.005
0.571306 0.218424 0.005
0.571109 0.25956 0.005
0.570912 0.300695 0.005
0.570715 0.341831 0.005
0.570519 0.382967 0.005
0.570322 0.424102 0.005
0.570125 0.465238 0.005
0.569928 0.506373 0.005
0.569732 0.547509 0.005
0.569535 0.588644 0.005
0.569338 0.62978 0.005
0.569142 0.670916 0.005
0.568945 0.712051 0.005
0.568748 0.753187 0.005
0.568551 0.794322 0.005
0.568355 0.835458 0.005
0.568158 0.876593 0.005
0.567961 0.917729 0.005
0.567764 0.958864 0.005
0.567568 1.0 0.005
0.612625 0.0198587 0.005
0.612436 0.0606979 0.005
0.612248 0.101537 0.005
0.61206 0.142376 0.005
0.611872 0.183216 0.005
0.611684 0.224055 0.005
0.611496 0.264894 0.005
0.611307 0.305733 0.005
0.611119 0.346572 0.005
0.610931 0.387412 0.005
0.610743 0.428251 0.005
0.610555 0.46909 0.005
0.610366 0.509929 0.005
0.610178 0.550769 0.005
0.60999 0.591608 0.005
0.609802 0.632447 0.005
0.609614 0.673286 0.005
0.609425 0.714125 0.005
0.609237 0.754965 0.005
0.609049 0.795804 0.005
0.608861 0.836643 0.005
0.608673 0.877482 0.005
0.608484 0.918322 0.005
0.608296 0.959161 0.005
0.608108 1.0 0.005
0.65296 0.0269708 0.005
0.65278 0.0675137 0.005
0.652601 0.108057 0.005
0.652421 0.148599 0.005
0.652241 0.189142 0.005
0.652062 0.229685 0.005
0.651882 0.270228 0.005
0.651702 0.310771 0.005
0.651523 0.351314 0.005
0.651343 0.391857 0.005
0.651164 0.4324 0.005
0.650984 0.472943 0.005
0.650804 0.513485 0.005
0.650625 0.554028 0.005
0.650445 0.594571 0.005
0.650265 0.635114 0.005
0.650086 0.675657 0.005
0.649906 0.7162 0.005
0.649726 0.756743 0.005
0.649547 0.797286 0.005
0.649367 0.837828 0.005
0.649188 0.878371 0.005
0.649008 0.918914 0.005
0.648828 0.959457 0.005
0.648649 1.0 0.005
0.693295 0.034083 0.005
0.693124 0.0743295 0.005
0.692953 0.114576 0.005
0.692782 0.154823 0.005
0.692611 0.195069 0.005
0.69244 0.235316 0.005
0.692269 0.275562 0.005
0.692098 0.315809 0.005
0.691926 0.356055 0.005
0.691755 0.396302 0.005
0.691584 0.436548 0.005
[...]
CELL_DATA 888
SCALARS P float 1
LOOKUP_TABLE default
100144.38027129417
100144.03334196148
100203.44373349103
100141.6429574343
100203.3165449427
100289.4305554046
100137.53869681623
100199.99724130578
100289.70175581724
100414.98801100951
100132.03160249125
100194.08030979142
100284.88390660379
100415.93802378887
100599.00291499046
100125.43447373621
100186.09256883581
100276.01348430925
100408.63770580181
100601.0838897977
100870.04544876487
100118.05582602599
100176.53520542779
100264.00512320659
100394.89875391418
100589.55104654495
100873.93078500079
101272.2364186289
100110.18675035905
100165.88296265448
100249.70320875729
100376.33904606068
100567.65174778251
100854.90928363265
101278.65082065624
101876.08237244775
100102.0888205241
100154.57028836687
100233.87746250331
100354.41965301457
100538.31232613415
100819.03461300186
101245.6995431282
101884.59769520831
102801.0677560385
100093.9862907521
100142.97818557046
100217.20538868441
100330.42223687186
100504.10588527405
100771.73786749973
101185.24944644445
101824.03179472842
102804.50263376976
104270.16455364037
100086.06294090941
100131.42645459108
100200.25881101639
100305.42473220112
100467.18830299102
100717.596960305
101107.61872433987
101718.99215997878
102684.9173459694
104230.77501599047
106764.69988994146
100078.4626825495
100120.17207053289
100183.50066768931
100280.29632900546
100429.2813890809
100660.2336228128
101020.9613811299
101589.3836830421
102496.13727931236
103974.55385237257
106510.68241349305
111542.18751783123
100071.29292166507
100109.41248118
100167.2895902851
100255.70600241098
100391.69432134916
100602.35877594739
100931.26222098777
101449.51069121728
102276.35712218539
103623.18115166634
105914.5975606787
110281.55623246585
122689.31836137967
100064.62937297665
100099.29198954866
100151.890653407
100232.14665458599
100355.3785648099
100545.89783709636
100842.64810447273
101308.85482940685
102049.45644196427
103245.94338666499
105240.48954692691
108807.61943409813
116435.71108555324
133024.202280941
100058.5215605591
100089.90978402825
100137.48919688635
100209.96206676941
100320.9868976367
100492.14366684732
100757.80392970677
101173.30330845644
101829.20554058075
102877.95135092364
104590.41296207975
107502.25581881005
112874.81812167916
123311.15002024216
141128.2382696502
100052.99842112628
100081.32833377506
100124.20529657419
100189.375309384
100288.93799693759
100441.90651731499
100678.35491408795
101046.24444958975
101622.9361976437
102535.43606724337
103998.81579985133
106398.21697859293
110478.91333342966
117707.68800723275
129890.35997792413
147705.94064446277
100048.07353122055
100073.5817929876
100112.10776902102
100170.51594008597
100259.47260655707
100395.63862583865
100605.1759575597
100929.40717430637
101434.07308047355
102224.80453918803
103473.92773642558
105469.29998304242
108703.40494954701
114082.27419843266
122827.42990599542
135885.05710195485
153133.41763131195
100043.74988641258
100066.68340026299
100101.2270827412
100153.44275524639
100232.69879331047
100353.53886995475
100538.63368981314
100823.45892679908
101263.75118496567
101947.46292951862
103014.03863468282
104685.52591172661
107313.68231405455
111509.62644360623
118106.7011519155
127907.70873811336
141245.937067861
157640.4094028541
100040.02424603999
100060.6322667456
100091.56642936003
100138.16467300028
100208.6326447663
100315.63088851291
100478.75521140442
100728.40106991549
101111.79624181386
101702.33635938172
102613.88651836579
104021.8519930632
106191.09721107516
109563.77951850941
114735.5694924255
122333.5242466583
132772.78875598757
145996.03164513662
161385.47968836635
100036.8909851679
100055.41940364329
100083.11120575052
100124.6564822309
100187.22714237461
100281.82407119722
100425.35699055817
100643.84615461293
100977.31929430534
101487.20065767961
102267.18718479166
103458.30514449828
105267.21913370055
108030.2803383279
112195.05875553536
118253.45092840663
126596.17143661228
137332.20576566065
150178.17275203692
164488.0913312971
100034.34593529382
100051.0331488745
100075.83774704514
100112.87332015693
100168.39812241179
100251.95775373136
100378.13142886946
100569.18909175435
100859.08476018845
101299.37498549213
101967.66069843427
102978.83671514176
104498.07772395396
106790.16435942239
110205.11158648852
115138.83956287304
121940.3275076795
130777.59834427334
141544.0550824289
153839.71066618912
167043.11584990806
100032.39074069796
100047.4646687177
100069.72065562208
100102.76127526406
100152.0408713011
100225.83495811064
100336.7080475814
100503.72243389505
100755.71919317116
101136.09092954255
101709.46861702243
102570.39523415445
103853.1407549324
105770.84526893107
108605.1520303859
112682.70923363158
118313.9910277319
125691.04086747258
134798.94558995325
145393.35400971444
157027.37438178586
169129.18211366257
100031.03870174658
100044.71462767402
100064.74074964128
100094.26872882868
100138.0476369591
100203.24729485036
100300.6949961029
100446.71566524408
100665.83935070319
100994.69011422763
101487.3531161001
102222.23011229577
103309.7939904924
104924.21580691038
107296.47259148685
110700.68060818798
115414.18539984137
121639.40544315154
129421.30880607454
138609.42278636547
148880.68023201218
159785.9236761813
170813.46611686586
100030.3246709352
100042.80281928905
100060.895054591
100087.35676411152
100126.32006339515
100183.99441940505
100269.7098474879
100397.45699574686
100588.13084269447
100872.7220743794
101296.67581023493
101925.41645588721
102850.65024991425
104216.22866237629
106213.80130113517
109075.93061323876
113050.51471467013
118342.46440240863
125040.46088047752
133066.05339006227
142177.8051951135
152016.60718565117
162157.91173746999
172154.56896701446
100041.78495634053
100058.21157201412
100082.013798101
100116.7850148274
100167.90107065166
100243.4029421113
100355.28994250663
100521.38675541666
100767.97952787491
101133.3919540944
101672.50883526164
102461.98352868731
103621.4806080221
105311.34006835813
107729.9683336121
111098.32713439917
115617.83798897055
121408.49259780752
128452.47368677976
136576.73589723321
145486.3993471207
154816.72894020838
164183.16503269336
173201.16922344605
100056.77516779881
100078.27698975454
100109.41342909391
100154.83680143715
100221.47795519332
100319.63462727956
100464.53353227579
100678.5215044632
100994.0211675147
101457.27209358124
102132.70975962552
103120.42588837669
104555.29485129662
106607.05675953861
109471.80750871549
113342.50926477286
118359.54255581036
124555.31667347373
131821.04171581732
139918.11845635224
148527.74427719697
157300.45479408553
165898.32897996085
173998.42855480465
100076.26991319221
100104.25150034095
100144.74187717281
100203.71335431469
100290.0082349712
100416.65009277359
100602.67430059398
100875.58964852942
101274.50026484826
101853.81404837234
102697.62334123778
103919.8019561549
105665.78267823214
108108.73531944583
111429.65876688917
115779.57226081558
121229.86144580667
127730.80785754074
135102.19943207304
143066.0271330945
151301.6503762359
159488.63175177056
167338.4188848836
174580.83755645808
100101.472865213
100137.66917772978
100189.9985368763
100266.0533913908
100376.98300268047
100539.02976450928
100775.59185901078
101119.84546972693
101617.91181674488
102340.68819813462
103384.5967312258
104874.34676675279
106962.11942466478
109814.77436474824
113586.1437868501
118375.22748240149
124183.06792356007
130888.63038224723
138261.04909769795
146005.04110930025
153813.39318736197
161403.47771326205
168532.33809573276
174982.899740675
100133.85647099989
100180.38840858827
100247.57913799398
100344.975237736
100486.45322571849
100691.95626130416
100989.71059685893
101418.94272959682
102039.59289763602
102933.51573674747
104207.6955428406
105995.28831916231
108448.10345440546
111716.78264744185
115917.65902263034
121092.3473804158
127175.48703471517
133989.11045180933
141271.11672492506
148726.64101047115
156072.05520494553
163066.31550823778
169510.4041916143
175230.29907840898
100175.20271551155
100234.63557931116
100320.31825932728
100444.11055276218
100623.03583514255
100881.16235561407
101251.9443537332
101786.2012540137
102553.54110997153
103645.76681567609
105179.04464798844
107289.94267279346
110121.93735530584
113800.12024622457
118395.99003371147
123892.7570980303
130166.92115114273
136998.98474956967
144112.98386030667
151226.8909014389
158088.84818723303
164497.8638455176
170295.99885680593
175350.83628390732
100227.6456847597
100303.04610054038
100411.52577370813
100567.62240026947
100791.89243636225
101112.92403501572
101573.90211691985
102234.12079542104
103172.37503578504
104489.75439001052
106308.08445676879
108761.20365741971
111976.28568741708
116044.95330198729
120989.87707567448
126738.96737772698
133121.26756544478
139891.1564467196
146773.21854100455
153507.15915054144
159876.52222221982
165718.70708328474
170913.65777966197
175360.71280459478
100293.71204409494
100388.7034173961
100525.01469238425
100720.20836762898
100998.75276609171
101397.39537370448
101966.72103170898
102774.38329137347
103908.17606977758
105476.04723973556
107600.88721909982
110407.25807557418
113998.53559161237
118427.25086751013
123666.47762474208
129595.14306143874
136006.9813903351
142644.5778482475
149243.42835644458
155571.05622312837
161448.21554918983
166748.2417239659
171383.11042691156
175284.87368030302
100376.36171118525
100495.1740692612
100665.12359128807
100907.14758356473
101252.55408597393
101744.5260983468
102441.15466638736
103418.55964043162
104771.92195013902
106612.72727487852
109059.70689536272
112221.50484620706
116171.51377426367
120919.9387601327
126392.67329387579
132428.2430237749
138797.2496727164
145242.03667074375
151518.58936635984
157425.42422284864
162818.27040519234
167604.32319332918
171724.28397140602
175136.54550903357
100479.02538017549
100626.5409496921
100836.77432100437
101136.38980529619
101562.23340432698
102164.17548977397
103008.11267867534
104177.6304717683
105772.91553218068
107904.93809538498
110682.70728634959
114192.83996556129
118474.16173724121
123494.01682459434
129136.09482267457
135207.81452079103
141469.6347057694
147672.52745208575
153597.72072472575
159077.26818091367
164000.03774952723
168303.18494314447
171954.50210871798
174937.21234216215
100605.64596401183
100787.47241544438
101047.14315622194
101416.01304010637
101936.82417656879
102666.53537967375
103678.2721984455
105061.43583272379
106918.20503928156
109354.44885832736
112463.8438807661
116305.91790620972
120882.40391213588
126119.54193125026
131865.86708227562
137907.95039437793
144005.0635979708
149926.35914298127
155481.21977173391
160534.32415826805
165006.53058036562
168861.4977530371
172092.20573405203
174708.76958692062
100760.75145475089
100984.58248577421
101303.61542215338
101754.32692118811
102385.81365534506
103261.83482408016
104461.66494007078
106078.26159117435
108212.14788182378
110959.27497441453
114392.9585697694
118541.80770608893
123369.86442194798
128766.52891254326
134552.53249416078
140504.68030959548
146389.26209981463
151997.97550444817
157171.258850059
161805.25034259603
165849.6525596387
169294.08859521284
172156.14823028623
174489.88562353887
100950.64696040278
101224.75795869308
101613.90201238425
102160.1638075402
102918.89004103334
103959.97306628636
105367.19232740381
107234.26499798331
109655.97859041288
112713.69234597925
116455.92136975739
120878.4237141818
125908.90929465002
131405.2083872015
137169.688203148
142977.07944312616
148608.87383511095
153883.23559717147
158670.49169883033
162897.5016894243
166540.96299648305
169615.3930329402
172170.92208399452
174328.3435571675
101181.92689691737
101515.25863943488
101986.27505512649
102642.68019548246
103545.68221097042
104770.1299666074
106402.18166743874
108533.02525711287
111247.51282614793
114607.9807918939
118635.08770815784
123290.83947924769
128470.55711771933
134007.11115516888
139692.3871964419
145307.49089221086
150654.13787939446
155578.65236106288
159981.06686863131
163817.15984262904
167088.9422192636
169837.39645131244
172161.26713746705
101461.59887360923
101863.91323244265
102429.3921690738
103211.11558721315
104275.36072255642
105700.33395199123
107571.94230608831
109975.17625869096
112980.89629545595
116628.6898356719
120909.50532088413
125753.10961147484
131026.14433311624
136544.58698660822
142097.79400602492
147479.5079201097
152515.2617141131
157079.8407449006
161103.01499521712
164566.43409492334
167495.0958862103
169962.6904412944
101797.23279280619
102278.99110396397
102952.10469413117
103874.49722769455
105116.2745394169
106756.97911669532
108879.19814930331
111558.0624644757
114846.56407250739
118758.79896006777
123255.49445428916
128236.70277240394
133546.4382249512
138991.1312758608
144364.1231685387
149477.33513109598
154182.12505035644
158381.64302460177
162031.595277945
165136.38724315388
167740.09758778248
102196.8508972091
102769.00272184957
103563.19474342656
104641.25829972279
106075.54005503432
107944.37064002581
110323.79705942459
113275.36930420499
116830.8306947807
120977.40423928815
125646.3263331635
130711.93724144575
136002.2223325802
141320.11498252756
146469.7551758721
151284.6093842472
155641.83478429366
159470.7485320198
162748.33995442488
165487.65083382252
102668.76509506123
103342.48033710389
104271.04299438496
105518.86832591804
107158.5299587854
109264.30453202053
111902.2812026774
115117.09238854272
118916.77103833883
123260.78473103377
128053.67395566282
133148.59205474344
138363.713819829
143504.78328610002
148392.09049188564
152881.01503787312
156873.97316362106
160318.35325671805
163194.12806644157
103221.33044980768
104007.69111513894
105083.26664317226
106513.41148249169
108368.41723240682
110715.5293082828
113607.50533322677
117068.89394717063
121083.04603705491
125582.07743302379
130446.41655912258
135514.37221636047
140599.7239439784
145516.8876135925
150104.18737222243
154238.34679373147
157838.41829672368
160848.4413307198
103862.70358187948
104772.27224273821
106006.33364272988
107629.03173534517
109705.7297870805
112293.3907828862
115428.21261545393
119112.70832747455
123304.33688997227
127910.0259041047
132791.0188567997
137774.5443836844
142676.24691801408
147322.64353812952
151569.4751275729
155306.48560854205
158443.33953974716
104600.50477836572
105642.8468755066
107045.0145376445
108867.47030340123
111167.60527805383
113989.10071335633
117348.91100577121
121225.69002291742
125551.54788471291
130211.38266053639
135050.10602933212
139890.46271267522
144553.2892741682
148877.30931549298
152726.71882621822
155976.64362303508
105441.40322604285
106624.58158466645
108201.94972405458
110227.57422044955
112747.83972740642
115789.83642122746
119349.27123011104
123380.21097464707
127790.82946593019
132446.42738559368
137180.99678230446
141816.2315942557
146178.60066508013
150109.8701399823
153453.5042379549
106390.70336358441
107720.63137716662
109477.09089545382
111704.60096780678
114435.46616358518
117677.55298143536
121403.75906050357
125543.2672853603
129982.52004520224
134570.62096530886
139134.05425277964
143492.72426330065
147471.66361446283
150884.2718153313
107451.84347279629
108931.62395249387
110866.82536922592
113289.43227123455
116214.60109086325
119628.73961340052
123480.46524149766
127675.39935317566
132080.0603506387
136529.53756988185
140842.98115249677
144831.72176898678
148284.43974108822
108625.75280827917
110254.94722816197
112363.83787285558
114968.50257448365
118063.89907809944
121613.37869848742
125540.70786573217
129729.05765462552
134025.75242758496
138252.64701157986
142212.15637102647
145673.50522026754
109910.35431437376
111684.09618910511
113955.6370779546
116721.78969652741
119955.08632761733
123593.86542019436
127536.96725959207
131645.02604237857
135745.45696350897
139637.3279880926
143073.79585404473
111299.6600321562
113207.88951393079
115624.17879546998
118523.0441817325
121852.00215206096
125522.97541389799
129409.02477758737
133346.11135431813
137132.20049991398
140509.66066017468
112783.10902466756
114809.39837416855
117344.52105444214
120337.4852935125
123708.34336721823
127340.37790102046
131077.88427047268
134721.3180800407
138005.8571050883
114344.43048685296
116464.85033326845
119083.3787514283
122119.93543197443
125464.0010338972
128966.44270471741
132430.6607199579
135588.51341781384
115960.49522988751
118142.08975841818
120796.6886029796
123811.59708233312
127039.68941442629
130287.46050779261
133284.19034720148
117599.93578654571
119798.41901766785
122427.16546220543
125333.7225703892
128322.58378215271
131121.29392336454
119220.82527249694
121377.28224406237
123896.92983865773
126574.414856109
129132.28678905964
120767.38093177004
122802.51387244152
125096.34280863042
127357.7549978219
122164.3662880982
123966.33612256616
125853.06442726775
123305.2301966328
124700.09656469915
124024.32635841568
SCALARS T float 1
LOOKUP_TABLE default
300.1246203057044
300.1243013762405
300.17607566540244
300.1222125720905
300.1759218625573
300.2514096610806
300.1186392123494
300.1729947718716
300.2515467440615
300.3622192846337
300.1138520147489
300.16781011939617
300.2472443167629
300.3628274225612
300.5261463248226
300.1081236951273
300.16082829569336
300.2394051715973
300.35620067119464
300.52747912744854
300.77044415239004
300.1017231068507
300.15248857487194
300.228833275802
300.34392663761247
300.51679782419046
300.7727765973256
301.1381180058688
300.0949035072139
300.1432069290354
300.2162735702037
300.3274383519783
300.496971750884
300.75474517582086
301.1413772022274
301.6991143356625
300.08789195361675
300.13336320564605
300.2024048246155
300.3080349615937
300.4706172212747
300.72175514091737
301.1093635437212
301.7013121282778
302.57256721514585
300.080882573668
300.1232894495709
300.18782271228986
300.28685490484474
300.44004275817844
300.6787141375714
301.05280170328217
301.64114570487965
302.56371393459705
303.97624214903067
300.07403395075477
300.1132632612085
300.17302769302154
300.26485160541455
300.4071783575299
300.62976893750266
300.9811186511861
301.541124614991
302.44322489126887
303.9150795310113
306.3527996030263
300.0674698033947
300.1035066674651
300.1584226025356
300.2427888920038
300.37355603704435
300.5781872951145
300.9017696437828
301.4196137325788
302.26077378461076
303.6572018041453
306.07445525216633
310.74065636205233
300.0612820500068
300.0941893273647
300.1443173549698
300.2212497344534
300.34032993867527
300.526393688015
300.8201917858259
301.28979248358934
302.0518233978634
303.3149705770378
305.4882558427831
309.5673630554958
319.9748402051767
300.05553510558286
300.08543439633394
300.1309390848279
300.20065917259467
300.30832852100144
300.47608703655993
300.7400861755816
301.16031188259234
301.83847087801684
302.9527585917261
304.8349727632847
308.1882052991233
314.9742907256001
328.0108788358816
300.0502707399774
300.0773257580995
300.11844487127587
300.18130962554784
300.2781107322102
300.4283863501605
300.66381168735285
301.036439503871
301.6332739454014
302.6030797843217
304.2095116215277
306.95141093301254
311.8783579196419
320.7496932594989
334.0606519938922
300.04551299165706
300.06991550073377
300.10693486043033
300.1633871343315
300.25002648405064
300.38397295086025
300.59275018797746
300.92110351287886
301.44270226547457
302.2806188273376
303.64425260460087
305.8988444974889
309.69423958556047
316.1301852008522
326.05384106735397
338.8368976081832
300.0412727266164
300.0632313299089
300.0964648129335
300.14699613211667
300.22426872237793
300.3432079514496
300.52760146123177
300.8156976942255
301.2695558935054
301.9907341236784
303.1465448794217
305.0129398776577
308.0353326222766
312.94886517814155
320.4878440469426
330.71875753164437
342.69515674817524
300.0375517869781
300.05728305192935
300.08705755239225
300.1321799466456
300.20091493255995
300.3062296160722
300.46861194077024
300.72065323064413
301.114520942007
301.73407141304773
302.7140020657802
304.26817343033633
306.7229413836123
310.60474817639636
316.4961064990877
324.67125780169664
334.7654886594931
345.84404915776423
300.03434674660014
300.05206848231205
300.0787126954589
300.1189393710407
300.1799638377439