# vtk DataFile Version 2.0
JuliaCFD
ASCII
DATASET UNSTRUCTURED_GRID

POINTS 1900 float
0.0 0.0 0.005
0.0 0.0416667 0.005
0.0 0.0833333 0.005
0.0 0.125 0.005
0.0 0.166667 0.005
0.0 0.208333 0.005
0.0 0.25 0.005
0.0 0.291667 0.005
0.0 0.333333 0.005
0.0 0.375 0.005
0.0 0.416667 0.005
0.0 0.458333 0.005
0.0 0.5 0.005
0.0 0.541667 0.005
0.0 0.583333 0.005
0.0 0.625 0.005
0.0 0.666667 0.005
0.0 0.708333 0.005
0.0 0.75 0.005
0.0 0.791667 0.005
0.0 0.833333 0.005
0.0 0.875 0.005
0.0 0.916667 0.005
0.0 0.958333 0.005
0.0 1.0 0.005
0.0409575 0.0 0.005
0.0409401 0.0416667 0.005
0.0409227 0.0833333 0.005
0.0409054 0.125 0.005
0.040888 0.166667 0.005
0.0408706 0.208333 0.005
0.0408532 0.25 0.005
0.0408359 0.291667 0.005
0.0408185 0.333333 0.005
0.0408011 0.375 0.005
0.0407838 0.416667 0.005
0.0407664 0.458333 0.005
0.040749 0.5 0.005
0.0407316 0.541667 0.005
0.0407143 0.583333 0.005
0.0406969 0.625 0.005
0.0406795 0.666667 0.005
0.0406621 0.708333 0.005
0.0406448 0.75 0.005
0.0406274 0.791667 0.005
0.04061 0.833333 0.005
0.0405927 0.875 0.005
0.0405753 0.916667 0.005
0.0405579 0.958333 0.005
0.0405405 1.0 0.005
0.0819149 0.0 0.005
0.0818802 0.0416667 0.005
0.0818455 0.0833333 0.005
0.0818107 0.125 0.005
0.081776 0.166667 0.005
0.0817412 0.208333 0.005
0.0817065 0.25 0.005
0.0816717 0.291667 0.005
0.081637 0.333333 0.005
0.0816022 0.375 0.005
0.0815675 0.416667 0.005
0.0815328 0.458333 0.005
0.081498 0.5 0.005
0.0814633 0.541667 0.005
0.0814285 0.583333 0.005
0.0813938 0.625 0.005
0.081359 0.666667 0.005
0.0813243 0.708333 0.005
0.0812895 0.75 0.005
0.0812548 0.791667 0.005
0.0812201 0.833333 0.005
0.0811853 0.875 0.005
0.0811506 0.916667 0.005
0.0811158 0.958333 0.005
0.0810811 1.0 0.005
0.122872 0.0 0.005
0.12282 0.0416667 0.005
0.122768 0.0833333 0.005
0.122716 0.125 0.005
0.122664 0.166667 0.005
0.122612 0.208333 0.005
0.12256 0.25 0.005
0.122508 0.291667 0.005
0.122455 0.333333 0.005
0.122403 0.375 0.005
0.122351 0.416667 0.005
0.122299 0.458333 0.005
0.122247 0.5 0.005
0.122195 0.541667 0.005
0.122143 0.583333 0.005
0.122091 0.625 0.005
0.122039 0.666667 0.005
0.121986 0.708333 0.005
0.121934 0.75 0.005
0.121882 0.791667 0.005
0.12183 0.833333 0.005
0.121778 0.875 0.005
0.121726 0.916667 0.005
0.121674 0.958333 0.005
0.121622 1.0 0.005
0.16383 0.0 0.005
0.16376 0.0416667 0.005
0.163691 0.0833333 0.005
0.163621 0.125 0.005
0.163552 0.166667 0.005
0.163482 0.208333 0.005
0.163413 0.25 0.005
0.163343 0.291667 0.005
0.163274 0.333333 0.005
0.163204 0.375 0.005
0.163135 0.416667 0.005
0.163066 0.458333 0.005
0.162996 0.5 0.005
0.162927 0.541667 0.005
0.162857 0.583333 0.005
0.162788 0.625 0.005
0.162718 0.666667 0.005
0.162649 0.708333 0.005
0.162579 0.75 0.005
0.16251 0.791667 0.005
0.16244 0.833333 0.005
0.162371 0.875 0.005
0.162301 0.916667 0.005
0.162232 0.958333 0.005
0.162162 1.0 0.005
0.204787 0.0 0.005
0.2047 0.0416667 0.005
0.204614 0.0833333 0.005
0.204527 0.125 0.005
0.20444 0.166667 0.005
0.204353 0.208333 0.005
0.204266 0.25 0.005
0.204179 0.291667 0.005
0.204092 0.333333 0.005
0.204006 0.375 0.005
0.203919 0.416667 0.005
0.203832 0.458333 0.005
0.203745 0.5 0.005
0.203658 0.541667 0.005
0.203571 0.583333 0.005
0.203484 0.625 0.005
0.203398 0.666667 0.005
0.203311 0.708333 0.005
0.203224 0.75 0.005
0.203137 0.791667 0.005
0.20305 0.833333 0.005
0.202963 0.875 0.005
0.202876 0.916667 0.005
0.20279 0.958333 0.005
0.202703 1.0 0.005
0.245745 0.0 0.005
0.245641 0.0416667 0.005
0.245536 0.0833333 0.005
0.245432 0.125 0.005
0.245328 0.166667 0.005
0.245224 0.208333 0.005
0.245119 0.25 0.005
0.245015 0.291667 0.005
0.244911 0.333333 0.005
0.244807 0.375 0.005
0.244703 0.416667 0.005
0.244598 0.458333 0.005
0.244494 0.5 0.005
0.24439 0.541667 0.005
0.244286 0.583333 0.005
0.244181 0.625 0.005
0.244077 0.666667 0.005
0.243973 0.708333 0.005
0.243869 0.75 0.005
0.243764 0.791667 0.005
0.24366 0.833333 0.005
0.243556 0.875 0.005
0.243452 0.916667 0.005
0.243347 0.958333 0.005
0.243243 1.0 0.005
0.286702 0.0 0.005
0.286581 0.0416667 0.005
0.286459 0.0833333 0.005
0.286337 0.125 0.005
0.286216 0.166667 0.005
0.286094 0.208333 0.005
0.285973 0.25 0.005
0.285851 0.291667 0.005
0.285729 0.333333 0.005
0.285608 0.375 0.005
0.285486 0.416667 0.005
0.285365 0.458333 0.005
0.285243 0.5 0.005
0.285121 0.541667 0.005
0.285 0.583333 0.005
0.284878 0.625 0.005
0.284757 0.666667 0.005
0.284635 0.708333 0.005
0.284513 0.75 0.005
0.284392 0.791667 0.005
0.28427 0.833333 0.005
0.284149 0.875 0.005
0.284027 0.916667 0.005
0.283905 0.958333 0.005
0.283784 1.0 0.005
0.32766 0.0 0.005
0.327521 0.0416667 0.005
0.327382 0.0833333 0.005
0.327243 0.125 0.005
0.327104 0.166667 0.005
0.326965 0.208333 0.005
0.326826 0.25 0.005
0.326687 0.291667 0.005
0.326548 0.333333 0.005
0.326409 0.375 0.005
0.32627 0.416667 0.005
0.326131 0.458333 0.005
0.325992 0.5 0.005
0.325853 0.541667 0.005
0.325714 0.583333 0.005
0.325575 0.625 0.005
0.325436 0.666667 0.005
0.325297 0.708333 0.005
0.325158 0.75 0.005
0.325019 0.791667 0.005
0.32488 0.833333 0.005
0.324741 0.875 0.005
0.324602 0.916667 0.005
0.324463 0.958333 0.005
0.324324 1.0 0.005
0.368617 0.0 0.005
0.368461 0.0416667 0.005
0.368305 0.0833333 0.005
0.368148 0.125 0.005
0.367992 0.166667 0.005
0.367835 0.208333 0.005
0.367679 0.25 0.005
0.367523 0.291667 0.005
0.367366 0.333333 0.005
0.36721 0.375 0.005
0.367054 0.416667 0.005
0.366897 0.458333 0.005
0.366741 0.5 0.005
0.366585 0.541667 0.005
0.366428 0.583333 0.005
0.366272 0.625 0.005
0.366116 0.666667 0.005
0.365959 0.708333 0.005
0.365803 0.75 0.005
0.365647 0.791667 0.005
0.36549 0.833333 0.005
0.365334 0.875 0.005
0.365178 0.916667 0.005
0.365021 0.958333 0.005
0.364865 1.0 0.005
0.409575 0.0 0.005
0.409401 0.0416667 0.005
0.409227 0.0833333 0.005
0.409054 0.125 0.005
0.40888 0.166667 0.005
0.408706 0.208333 0.005
0.408532 0.25 0.005
0.408359 0.291667 0.005
0.408185 0.333333 0.005
0.408011 0.375 0.005
0.407838 0.416667 0.005
0.407664 0.458333 0.005
0.40749 0.5 0.005
0.407316 0.541667 0.005
0.407143 0.583333 0.005
0.406969 0.625 0.005
0.406795 0.666667 0.005
0.406621 0.708333 0.005
0.406448 0.75 0.005
0.406274 0.791667 0.005
0.4061 0.833333 0.005
0.405927 0.875 0.005
0.405753 0.916667 0.005
0.405579 0.958333 0.005
0.405405 1.0 0.005
0.450532 0.0 0.005
0.450341 0.0416667 0.005
0.45015 0.0833333 0.005
0.449959 0.125 0.005
0.449768 0.166667 0.005
0.449577 0.208333 0.005
0.449386 0.25 0.005
0.449195 0.291667 0.005
0.449003 0.333333 0.005
0.448812 0.375 0.005
0.448621 0.416667 0.005
0.44843 0.458333 0.005
0.448239 0.5 0.005
0.448048 0.541667 0.005
0.447857 0.583333 0.005
0.447666 0.625 0.005
0.447475 0.666667 0.005
0.447284 0.708333 0.005
0.447093 0.75 0.005
0.446901 0.791667 0.005
0.44671 0.833333 0.005
0.446519 0.875 0.005
0.446328 0.916667 0.005
0.446137 0.958333 0.005
0.445946 1.0 0.005
0.49149 0.0 0.005
0.491281 0.0416667 0.005
0.491073 0.0833333 0.005
0.490864 0.125 0.005
0.490656 0.166667 0.005
0.490447 0.208333 0.005
0.490239 0.25 0.005
0.49003 0.291667 0.005
0.489822 0.333333 0.005
0.489613 0.375 0.005
0.489405 0.416667 0.005
0.489197 0.458333 0.005
0.488988 0.5 0.005
0.48878 0.541667 0.005
0.488571 0.583333 0.005
0.488363 0.625 0.005
0.488154 0.666667 0.005
0.487946 0.708333 0.005
0.487737 0.75 0.005
0.487529 0.791667 0.005
0.48732 0.833333 0.005
0.487112 0.875 0.005
0.486903 0.916667 0.005
0.486695 0.958333 0.005
0.486486 1.0 0.005
0.531954 0.00563435 0.005
0.531749 0.0470663 0.005
0.531544 0.0884982 0.005
0.531338 0.12993 0.005
0.531133 0.171362 0.005
0.530928 0.212794 0.005
0.530722 0.254226 0.005
0.530517 0.295658 0.005
0.530312 0.33709 0.005
0.530107 0.378521 0.005
0.529901 0.419953 0.005
0.529696 0.461385 0.005
0.529491 0.502817 0.005
0.529285 0.544249 0.005
0.52908 0.585681 0.005
0.528875 0.627113 0.005
0.528669 0.668545 0.005
0.528464 0.709977 0.005
0.528259 0.751409 0.005
0.528054 0.79284 0.005
0.527848 0.834272 0.005
0.527643 0.875704 0.005
0.527438 0.917136 0.005
0.527232 0.958568 0.005
0.527027 1.0 0.005
0.572289 0.0127465 0.005
0.572093 0.0538821 0.005
0.571896 0.0950177 0.005
0.571699 0.136153 0.005
0.571502 0.177289 0.005
0.571306 0.218424 0.005
0.571109 0.25956 0.005
0.570912 0.300695 0.005
0.570715 0.341831 0.005
0.570519 0.382967 0.005
0.570322 0.424102 0.005
0.570125 0.465238 0.005
0.569928 0.506373 0.005
0.569732 0.547509 0.005
0.569535 0.588644 0.005
0.569338 0.62978 0.005
0.569142 0.670916 0.005
0.568945 0.712051 0.005
0.568748 0.753187 0.005
0.568551 0.794322 0.005
0.568355 0.835458 0.005
0.568158 0.876593 0.005
0.567961 0.917729 0.005
0.567764 0.958864 0.005
0.567568 1.0 0.005
0.612625 0.0198587 0.005
0.612436 0.0606979 0.005
0.612248 0.101537 0.005
0.61206 0.142376 0.005
0.611872 0.183216 0.005
0.611684 0.224055 0.005
0.611496 0.264894 0.005
0.611307 0.305733 0.005
0.611119 0.346572 0.005
0.610931 0.387412 0.005
0.610743 0.428251 0.005
0.610555 0.46909 0.005
0.610366 0.509929 0.005
0.610178 0.550769 0.005
0.60999 0.591608 0.005
0.609802 0.632447 0.005
0.609614 0.673286 0.005
0.609425 0.714125 0.005
0.609237 0.754965 0.005
0.609049 0.795804 0.005
0.608861 0.836643 0.005
0.608673 0.877482 0.005
0.608484 0.918322 0.005
0.608296 0.959161 0.005
0.608108 1.0 0.005
0.65296 0.0269708 0.005
0.65278 0.0675137 0.005
0.652601 0.108057 0.005
0.652421 0.148599 0.005
0.652241 0.189142 0.005
0.652062 0.229685 0.005
0.651882 0.270228 0.005
0.651702 0.310771 0.005
0.651523 0.351314 0.005
0.651343 0.391857 0.005
0.651164 0.4324 0.005
0.650984 0.472943 0.005
0.650804 0.513485 0.005
0.650625 0.554028 0.005
0.650445 0.594571 0.005
0.650265 0.635114 0.005
0.650086 0.675657 0.005
0.649906 0.7162 0.005
0.649726 0.756743 0.005
0.649547 0.797286 0.005
0.649367 0.837828 0.005
0.649188 0.878371 0.005
0.649008 0.918914 0.005
0.648828 0.959457 0.005
0.648649 1.0 0.005
0.693295 0.034083 0.005
0.693124 0.0743295 0.005
0.692953 0.114576 0.005
0.692782 0.154823 0.005
0.692611 0.195069 0.005
0.69244 0.235316 0.005
0.692269 0.275562 0.005
0.692098 0.315809 0.005
0.691926 0.356055 0.005
0.691755 0.396302 0.005
0.691584 0.436548 0.005
[...]
CELL_DATA 888
SCALARS P float 1
LOOKUP_TABLE default
100133.02426899927
100132.68510089858
100187.89009442095
100130.35724101175
100187.76306129551
100268.4269499042
100126.36285910891
100184.52586467116
100268.684527962
100386.9235458057
100121.00701130372
100178.75975559672
100263.97422291953
100387.83744167745
100561.80640842984
100114.59683180017
100170.98154255653
100255.31100031247
100380.67889053645
100563.81568176913
100821.05585051818
100107.43514640172
100161.68358546267
100243.59330303072
100367.22602880045
100552.4720989086
100824.81358260913
101208.03885521795
100099.80729704593
100151.33219031659
100229.65166447742
100349.07107539641
100530.97119677754
100806.04927495986
101214.23809051134
101792.30290723918
100091.96913583412
100140.35354241582
100214.24303957439
100327.65337823376
100502.19880697367
100770.7357981433
101181.64492705293
101800.46736324333
102692.1155719957
100084.1393369429
100129.1205774334
100198.03282300035
100304.23509532947
100468.6938617763
100724.23960486804
101121.99662706265
101740.41725344627
102694.99895793482
104128.89283882552
100076.49634066469
100117.94532984076
100181.58133321813
100279.87624876581
100432.58231523457
100671.08453845694
101045.506253654
101636.54259977763
102576.193335965
104088.70019501305
106581.86391772715
100069.1790337712
100107.07741519627
100165.34065650748
100255.42947266034
100395.55932387193
100614.84628991564
100960.24169837928
101508.57353657174
102389.13832123393
103833.73953535239
106326.9366707417
111305.13469094156
100062.29015535855
100096.7074013254
100149.65930851563
100231.54857624319
100358.9103147791
100558.1962668272
100872.11708291921
101370.67701267551
102171.73410504735
103484.97141881323
105733.06910308514
110044.72736386186
122377.03538047196
100055.90113104884
100086.97323726048
100134.79303876989
100208.7126219294
100323.56555974855
100503.02589984208
100785.20124256259
101232.22771266181
101947.64439425948
103111.1929508032
105062.95845649292
108575.04586075735
116131.88649633678
132627.8003331085
100050.05757408869
100077.96829732352
100120.9186665661
100187.25286047802
100290.15906296142
100450.59882431693
100702.13118318435
101099.02922746072
101730.4820694421
102747.1903503311
104417.9071859142
107275.85490641426
112579.50640149425
122928.84416323871
140642.1982000284
100044.78487346784
100069.74977311016
100108.14854523655
100167.38110361526
100259.09287848874
100401.70007686089
100624.49236804039
100974.40391358729
101527.46264219529
102408.97559164671
103831.92254030282
106179.01760555129
110192.92989435457
117337.83087453546
129419.7536322344
147123.4347858398
100040.09339550056
100062.3470467936
100096.54453404152
100149.21682392541
100230.59305533675
100356.76016357337
100553.12655375745
100860.02809424541
101341.92330169637
102102.80281246001
103312.9573672305
105257.85532745313
108427.42144143832
113725.00385087373
122371.58711390621
135316.67873616988
152446.8993844431
100035.98322765376
100055.76905694147
100086.13085428445
100132.80984314742
100204.75475903736
100315.9591799777
100488.3724780821
100756.52666610372
101174.93176996228
101829.96781835712
102859.11654958558
104482.09308278334
107048.1015830666
111165.38470767255
117666.03834267697
127354.70301710546
140570.26347356944
156841.8844799924
100032.4484765243
100050.01103239201
100076.90509749875
100118.16108055481
100181.58269913198
100279.30452907222
100430.23378164603
100663.86633588342
101026.26113270623
101589.31375793119
102465.00799584418
103826.48779369918
105936.07889918693
109232.89219406836
114310.72310376684
121797.25712381321
132111.5273358822
145203.46025832582
160466.63304946883
100029.48106348721
100045.06045452933
100068.8476357862
100105.23822223557
100161.01987326067
100246.69152330009
100378.50701286389
100581.63101315622
100894.98064625527
101378.55392291346
102124.25249688028
103270.9235607023
105022.72837801304
107712.86447401706
111786.52153859235
117735.18103786997
125952.01535658109
136551.59158749107
149259.0074103629
163440.3811598806
100027.07448093865
100040.90239772385
100061.9302374346
100093.99003149272
100142.973258491
100217.94727315658
100332.86757407548
100509.19181655244
100779.8209639955
101194.95884284867
101830.499023053
102799.24669952814
104263.93066061888
106486.13173678708
109813.11706423377
114639.52339709616
121315.49692384733
130013.2363928598
140633.0434047996
152784.23089983934
165857.87017877548
100025.2280127245
100037.52489659513
100056.12327049613
100084.3568401055
100127.3303018746
100192.86409833677
100292.93038015993
100445.82138991002
100679.38113428946
101035.72176759606
101577.85458845108
102398.32698089557
103629.03670940558
105479.93547627574
108229.67137906693
112202.92221543245
117710.1828136756
124946.33205214978
133902.112388573
144341.0028067446
155825.9220053892
167797.70715502588
100023.95234481523
100034.9253886354
100051.40343792547
100076.28164042796
100113.97610783267
100171.22411112438
100258.2909272282
100390.77225707256
100592.25526684347
100898.15360969705
101361.01900848708
102057.35394158105
103095.34492526794
104646.0304354255
106937.24456329936
110240.62304613723
114832.55254378746
120916.99909643005
128543.36473102524
137568.00598809266
147676.2630204793
158429.00724588503
169327.1736704536
100023.27900407348
100033.11993465292
100047.76339870601
100069.72019071161
100102.80560857791
100152.81832123302
100228.5556144083
100343.31813429273
100517.10996789484
100779.778865231
101175.32050701349
101767.35651611577
102645.40151560579
103950.25952360618
105870.37678024326
108635.47146701912
112491.69143665842
117644.30652060927
124185.15800414163
132041.63113849872
140979.94229574114
150649.69898811344
160636.33371879134
170505.13085501973
100032.1592127293
100045.22588715468
100064.65507355389
100093.73886000748
100137.4632396012
100203.3645688105
100302.78969499399
100452.72213575423
100678.36972945833
101016.6878219009
101520.85349323145
102265.42810876842
103367.1379328479
104983.12010663046
107308.70057318431
110562.48160863786
114945.20121829749
120578.73364959692
127449.98121193147
135392.86285656638
144120.64486621198
153277.3575238887
162488.19250109303
171380.7467573578
100043.8683744296
100061.1161470344
100086.73913252538
100125.01988006542
100182.41153097874
100268.59524046365
100398.003964653
100591.96781205291
100881.61881899892
101311.58186754354
101944.30184405438
102877.05616777159
104241.56475388273
106204.35400233387
108958.71274752672
112696.05420203721
117557.4263896739
123578.72899912567
130657.28903201272
138562.27423641933
146983.2261622417
155579.27234201666
164021.89386561202
171999.8768172207
100059.21645765893
100081.84268233764
100115.41854643325
100165.46444179222
100240.2403140615
100352.02107373028
100518.88398118266
100767.12150592993
101134.31307081168
101672.97804953493
102464.52636607033
103619.7606442615
105280.84742427511
107617.84028019058
110809.5037824976
115006.43721126697
120282.24255374962
126592.26523620218
133763.5514552326
141526.33656800044
149568.26504415783
157577.13740038083
165273.37994304625
172398.12351855368
100079.20854168198
100108.69883414211
100152.39994776118
100217.3546809353
100314.00655436657
100457.69553164471
100670.67420430163
100984.68065827792
101444.04816350101
102117.1277832896
103097.3781503619
104506.24997041104
106492.616657516
109220.58546410906
112842.64039928668
117458.76685033321
123073.86105527409
129573.38076446834
136734.55117377735
144270.4907267278
151882.02064276917
159294.2707095407
166272.75223713845
172611.36015473338
100105.07865909082
100143.25547743725
100199.73130643376
100283.38797595142
100407.25253029662
100590.18981266065
100859.07096580637
101251.4325395069
101824.80624699102
102658.20583966847
103855.40984346942
105546.17210302086
107879.17279112551
111002.95787127221
115033.71682769952
120015.64462410747
125888.85394907609
132483.05965038095
139544.74733898227
146787.34565095566
153934.84529709676
160753.34203233244
167051.9636901873
172667.2765965167
100138.32418190838
100187.39755160378
100259.836702136
100366.70252810395
100524.00416751138
100754.53416547914
101090.1521161969
101579.40368439512
102289.18922503146
103308.19333248326
104749.15478972757
106745.26768374664
109437.32763914097
112949.30449523387
117354.02440764007
122638.97280373434
128687.6060905894
135288.9956065925
142175.93949542003
149074.37521726292
155739.4964905177
161976.87527511
167636.50013273288
172596.08243537557
100180.74123550674
100243.3575167739
100335.54470487009
100470.88758335338
100668.74270620695
100956.19610763421
101374.28968933407
101979.7485391596
102848.36034415921
104077.81771012668
105786.43004556424
108104.92337612153
111158.53976889502
115039.06675838205
119772.16850487993
125291.70924509541
131434.9491189863
137965.38018140904
144616.23571344718
151134.7000601969
157310.65178161985
162987.74517924036
168053.572165331
172417.29305226426
100234.45773282651
100313.7463125807
100430.10826372061
100599.97912732942
100846.41369621287
101204.14469254597
101721.32662505841
102462.73280901875
103512.83232441015
104975.99912857683
106971.7129149181
109621.96048096781
113029.25874021936
117247.85396354877
122255.57877021031
127938.87397504474
134100.64755379737
140492.8094098676
146859.1289451181
152974.03636062978
158663.91582080675
163808.2090379551
168326.31585543606
172159.86813839935
100301.96594242527
100401.58032195286
100547.21924520619
100758.49296718539
101064.81670073833
101507.08290145051
102140.63947187799
103038.38426612542
104291.93079351405
106009.16835197447
108305.7664103934
111288.64375727226
115031.71308019893
119548.64630208223
124771.85433860666
130548.71135335448
136659.60747269803
142856.111696838
148901.9431105604
154601.81956518663
159816.68110040014
164459.69401858834
168478.897005444
171842.23739763565
100386.15193559974
100510.30648163724
100691.05311057364
100953.28109018077
101331.6841750866
101873.5323472422
102641.62636266337
103716.03962789467
105193.27111174945
107180.87988076753
109785.44963714048
113093.04785656578
117144.66987806167
121912.97806085598
127289.82444568629
133092.51188567438
139091.54966676715
145046.78216935467
150746.5294636831
156028.2957039238
160786.03685419503
164962.83557497695
168533.93588634874
171492.18930544076
100490.32855759458
100643.85902790325
100867.72103712673
101191.2548009847
101654.74995747312
102312.20916687953
103233.34164728332
104503.84023474176
106222.24398226748
108491.4578075114
111403.69286329357
115019.41563251037
119344.3711551641
124311.97149619376
129780.33513372859
135546.61369900592
141380.06493496688
147058.15735935103
152396.63687304125
157265.12186335435
161589.61774213493
165339.76927230152
168516.3543074098
171139.4784342998
100618.29673176103
100807.81172207891
101083.47399974102
101479.45960394944
102042.0608071285
102831.74453239379
103924.11554784275
105408.36620300455
107381.65500189752
109937.71914573148
113149.69685034262
117048.8952563173
121605.32255245998
126717.28374374246
132216.22286668356
137889.84639314565
143514.10169835703
148888.30858303173
153858.55440296512
158325.77846620383
162244.91202716192
165611.9079963381
168452.7015694589
170831.53908553737
100775.33460992551
101007.94036283062
101344.78842576513
101825.32134573587
102501.73873787992
103440.34940966779
104721.12297360515
106434.14361013967
108671.39072173765
111513.08322485919
115009.17507015012
119160.06958327659
123901.40134085153
129101.42120531462
134573.97707253683
140104.69774055027
145484.16714475394
150537.41407987033
155139.93985494773
159223.50490752098
162770.21815751737
165801.55537555183
168376.4044482873
170624.72440164874
100966.94060485766
101250.29344942149
101658.55916163781
102236.45898879867
103041.74123828398
104145.46864524417
105630.00568263665
107583.2867058972
110088.22688062004
113207.4430845125
116964.91101438057
121329.35007360697
126205.82982162166
131438.8628143422
136832.22283386294
142177.5944830867
147285.11220231254
152007.1893541986
156248.97465626235
159971.26452760774
163181.96665545247
165929.50600361457
168320.40350987483
101198.92333267379
101541.34703677995
102031.93570242981
102720.46684743789
103669.50925410764
104953.41077660874
106654.51512592362
108855.23612925805
111625.70725042623
115007.54049393685
118997.07695890621
123532.85695066185
128492.89616452664
133705.65845734597
138972.43314248725
144097.0073968383
148912.55291502745
153299.45741171236
157192.7571707119
160579.34197164516
163490.5450704185
166006.62307538843
101477.51480752976
101887.88423857567
102472.14815794246
103284.65281928857
104391.6583049165
105868.95216959664
107796.05970780349
110246.53926055368
113274.2213691773
116897.23973512865
121083.89912712944
125744.97048018019
130737.14024894338
135879.8036776382
140977.95813175838
145852.8991238728
150362.76263055296
154416.42425311665
157974.78464444404
161047.80316269223
163685.09560889934
101809.26625576653
102296.8162066697
102986.27686350727
103935.71567839122
105213.64356177762
106894.98422179151
109053.53032249627
111750.62466112553
115020.74373869481
118857.35589961914
123201.45186732244
127939.80694200887
132914.01260416972
137940.06715433416
142833.24616120654
147435.57055998818
151630.50619033456
155353.2193931812
158585.79214988186
161346.05927186715
102200.90208003651
102774.99227671316
103580.97415212983
104679.44398811909
106139.35486735031
108032.21293386832
110423.0158595308
113357.91068601135
116849.82786494003
120866.79924487925
125325.16557260868
130091.90818934595
134999.3530649738
139866.0665338644
144522.77889136417
148832.52036091208
152704.15089146537
156090.49084478602
158975.80367563307
102659.10799366354
103328.95953743544
104262.1692561483
105520.38897469897
107170.77828128729
109278.77522312153
111897.5848957185
115055.32715150711
118742.59647235737
122902.38762194075
127428.74594363544
132174.8086817184
136968.64880153743
141636.99514410127
146027.68761113792
150024.74128195745
153553.31216989944
156561.84379716896
103190.33069593176
103964.66910749626
105034.77111179053
106461.43719122224
108307.69337976885
110630.0376718024
113467.01922251662
116827.04995255682
120677.29053227736
124937.70920534937
129484.63592567318
134160.7354698121
138795.71734661827
143227.649204693
147320.88004765546
150972.30185583932
154096.34783449094
103800.50591410411
104687.1771475887
105902.24619483085
107503.48533734409
109547.1066779915
112078.05211837619
115117.86525030014
118653.62719816869
122629.58465985925
126945.57046581035
131462.67757517894
136019.23467151957
140449.6101958218
144602.98484050285
148351.90572441273
151577.1998139554
104494.7359946334
105500.31476375357
106866.31587245406
108645.10912977811
110883.4546909795
113611.81768351572
116833.00545428932
120512.12095238749
124571.74874663711
128893.68799486796
133328.7240545433
137713.901100377
141888.27935040757
145703.40839120335
149009.85815527235
105276.98217459141
106406.27833755952
107926.56821190058
109882.07080705577
112307.42101100173
115216.31761934768
118591.45350305285
122375.62732351755
126471.68765945052
130746.3506044866
135043.0712305745
139196.4555511457
143043.08714316314
146405.22061794152
106149.7001084384
107405.2720571753
109079.785212919
111206.73495679855
113805.96020440369
116872.43635064116
120367.35732052707
124212.34274585907
128291.94426353932
132459.51849718747
136550.89410534996
140391.0087446624
143779.37424127187
107113.37102660288
108494.99229944861
110319.98383102694
112608.18138552351
115361.94846353852
118556.10414165154
122129.71279865642
125984.03606232286
129985.60466193796
133974.69026316257
137769.53326540889
141152.32650656407
108166.17588359152
109670.17501767754
111637.19295142015
114070.47810538793
116952.94893281667
120237.38617490421
123840.46915423151
127642.60626798314
131491.08961566648
135203.00026111855
138546.7343462812
109303.32255918995
110922.04787346028
113017.29669070028
115573.05744844614
118550.40652502594
121878.62131643448
125450.81276358853
129123.93593463446
132716.01145190338
135987.01573077688
110516.59709566351
112237.49695184836
114440.91819859389
117088.67387675814
120117.61599567941
123431.09855708895
126895.26838859907
130332.3841658273
133497.6722909437
111793.47488951034
113598.2066702331
115882.20412738317
118581.73662521079
121606.25008581008
124829.08782340711
128076.97979330384
131104.2018161953
113116.22317830454
114979.36840426282
117306.63842141593
120005.29159308052
122951.20415678537
125975.4895730332
128832.14459401977
114460.75430577436
116347.75930225098
118668.79986349169
121295.0034264467
124056.7438651356
126708.44643065479
115794.56244431283
117658.69084380867
119905.3570750488
122356.45411365612
124763.58052332442
117073.71329430441
118850.59149271263
120924.40993983271
123035.47107045268
118237.57908074139
119833.59494140065
121575.87674417584
119197.59159518586
120461.61841269996
119810.80471324341
SCALARS T float 1
LOOKUP_TABLE default
300.11481667481763
300.1145056009452
300.16261652888153
300.11247261195285
300.1624652038789
300.2331775135866
300.10899658918424
300.15961272545275
300.23330750502794
300.3377573269103
300.1043429562668
300.1545633056382
300.2291053788044
300.3383434984816
300.49354994296186
300.09877936863563
300.14776843579045
300.2214551402683
300.3318538680937
300.49483896692635
300.7272166676423
300.0925695869264
300.1396594267943
300.2111462270559
300.31984652471715
300.48434988522627
300.7294745983334
301.08098204369395
300.0859617369008
300.1306446066148
300.1989109152464
300.30373115222073
300.46490594264264
300.71172117669084
301.0841257422035
301.623775805135
300.0791777952893
300.121096358956
300.1854162330261
300.2847866922097
300.43908591290193
300.6792886381004
301.0525288686593
301.62580916120936
302.47344751247584
300.07240696548564
300.1113394906959
300.1712467577925
300.2641333242307
300.40916587117164
300.6370233453698
300.9967965105385
301.5662919088967
302.4643886282076
303.8462523938512
300.06580314949963
300.1016446931681
300.1568925024627
300.2427077931244
300.3770472439767
300.58901956231426
300.92625358065897
301.4675284708971
302.34494735161746
303.7849044536997
306.18338379582616
300.0594856885856
300.09222750355286
300.14274656103504
300.22125869904465
300.34423681121194
300.53850021051267
300.84826994654276
301.347710842691
302.1644290768795
303.5287570240838
305.90507084325463
310.5227364475017
300.05354246008517
300.083251566421
300.1291098754785
300.20035527311916
300.3118665870765
300.48785175700897
300.7682127167017
301.219880297107
301.9580039446912
303.18949742777164
305.32169839159036
309.35004039200027
319.7021848044233
300.0480341853936
300.0748345272344
300.1162014060293
300.1804102188206
300.2807456780018
300.4387411158746
300.6897264939669
301.09258088147664
301.7475518270313
302.83102217247045
304.67286861783083
307.975119348725
314.7022153012641
327.68198884303723
300.04299928278505
300.067055264502
300.104170843271
300.16170495961364
300.2514162500748
300.39226047718313
300.6151247649782
300.97099832810034
301.54547314446995
302.4855234048752
304.0527860243154
306.74454342805024
311.61122370643085
320.418714476953
333.67358659700795
300.0384587627635
300.0599613517132
300.09311170106326
300.144415798572
300.22421365951914
300.3490686493648
300.54575292492717
300.8579983184161
301.3581241337108
302.1674688776127
303.4933982184999
305.69929611789075
309.4346870451872
315.8027767356263
325.66043827704556
338.3885978943077
300.034420760441
300.05357643394757
300.08307381444627
300.12863855598727
300.1993182259856
300.3095078572259
300.4822813928326
300.7549267538634
301.1882226279089
301.8820687036008
303.00177684979957
304.82127809332553
307.78489626536185
312.6290302788771
320.09487815233723
330.2591495004259
342.18198616250004
300.03088465004174
300.04790667398333
300.0740747223974
300.11440897839134
300.17679653511374
300.273700438527
300.4249327220005
300.6621777212871
301.0363943842643
301.62986558444857
302.5753517974617
304.0846216425788
306.482446426863
310.2950140806047
316.1090858435059
324.20784053137265
334.2355376840101
345.2619898498355
300.0278447574267
300.042946607679
300.0661093294995
300.10172116041053