# vtk DataFile Version 2.0
JuliaCFD
ASCII
DATASET UNSTRUCTURED_GRID

POINTS 1900 float
0.0 0.0 0.005
0.0 0.0416667 0.005
0.0 0.0833333 0.005
0.0 0.125 0.005
0.0 0.166667 0.005
0.0 0.208333 0.005
0.0 0.25 0.005
0.0 0.291667 0.005
0.0 0.333333 0.005
0.0 0.375 0.005
0.0 0.416667 0.005
0.0 0.458333 0.005
0.0 0.5 0.005
0.0 0.541667 0.005
0.0 0.583333 0.005
0.0 0.625 0.005
0.0 0.666667 0.005
0.0 0.708333 0.005
0.0 0.75 0.005
0.0 0.791667 0.005
0.0 0.833333 0.005
0.0 0.875 0.005
0.0 0.916667 0.005
0.0 0.958333 0.005
0.0 1.0 0.005
0.0409575 0.0 0.005
0.0409401 0.0416667 0.005
0.0409227 0.0833333 0.005
0.0409054 0.125 0.005
0.040888 0.166667 0.005
0.0408706 0.208333 0.005
0.0408532 0.25 0.005
0.0408359 0.291667 0.005
0.0408185 0.333333 0.005
0.0408011 0.375 0.005
0.0407838 0.416667 0.005
0.0407664 0.458333 0.005
0.040749 0.5 0.005
0.0407316 0.541667 0.005
0.0407143 0.583333 0.005
0.0406969 0.625 0.005
0.0406795 0.666667 0.005
0.0406621 0.708333 0.005
0.0406448 0.75 0.005
0.0406274 0.791667 0.005
0.04061 0.833333 0.005
0.0405927 0.875 0.005
0.0405753 0.916667 0.005
0.0405579 0.958333 0.005
0.0405405 1.0 0.005
0.0819149 0.0 0.005
0.0818802 0.0416667 0.005
0.0818455 0.0833333 0.005
0.0818107 0.125 0.005
0.081776 0.166667 0.005
0.0817412 0.208333 0.005
0.0817065 0.25 0.005
0.0816717 0.291667 0.005
0.081637 0.333333 0.005
0.0816022 0.375 0.005
0.0815675 0.416667 0.005
0.0815328 0.458333 0.005
0.081498 0.5 0.005
0.0814633 0.541667 0.005
0.0814285 0.583333 0.005
0.0813938 0.625 0.005
0.081359 0.666667 0.005
0.0813243 0.708333 0.005
0.0812895 0.75 0.005
0.0812548 0.791667 0.005
0.0812201 0.833333 0.005
0.0811853 0.875 0.005
0.0811506 0.916667 0.005
0.0811158 0.958333 0.005
0.0810811 1.0 0.005
0.122872 0.0 0.005
0.12282 0.0416667 0.005
0.122768 0.0833333 0.005
0.122716 0.125 0.005
0.122664 0.166667 0.005
0.122612 0.208333 0.005
0.12256 0.25 0.005
0.122508 0.291667 0.005
0.122455 0.333333 0.005
0.122403 0.375 0.005
0.122351 0.416667 0.005
0.122299 0.458333 0.005
0.122247 0.5 0.005
0.122195 0.541667 0.005
0.122143 0.583333 0.005
0.122091 0.625 0.005
0.122039 0.666667 0.005
0.121986 0.708333 0.005
0.121934 0.75 0.005
0.121882 0.791667 0.005
0.12183 0.833333 0.005
0.121778 0.875 0.005
0.121726 0.916667 0.005
0.121674 0.958333 0.005
0.121622 1.0 0.005
0.16383 0.0 0.005
0.16376 0.0416667 0.005
0.163691 0.0833333 0.005
0.163621 0.125 0.005
0.163552 0.166667 0.005
0.163482 0.208333 0.005
0.163413 0.25 0.005
0.163343 0.291667 0.005
0.163274 0.333333 0.005
0.163204 0.375 0.005
0.163135 0.416667 0.005
0.163066 0.458333 0.005
0.162996 0.5 0.005
0.162927 0.541667 0.005
0.162857 0.583333 0.005
0.162788 0.625 0.005
0.162718 0.666667 0.005
0.162649 0.708333 0.005
0.162579 0.75 0.005
0.16251 0.791667 0.005
0.16244 0.833333 0.005
0.162371 0.875 0.005
0.162301 0.916667 0.005
0.162232 0.958333 0.005
0.162162 1.0 0.005
0.204787 0.0 0.005
0.2047 0.0416667 0.005
0.204614 0.0833333 0.005
0.204527 0.125 0.005
0.20444 0.166667 0.005
0.204353 0.208333 0.005
0.204266 0.25 0.005
0.204179 0.291667 0.005
0.204092 0.333333 0.005
0.204006 0.375 0.005
0.203919 0.416667 0.005
0.203832 0.458333 0.005
0.203745 0.5 0.005
0.203658 0.541667 0.005
0.203571 0.583333 0.005
0.203484 0.625 0.005
0.203398 0.666667 0.005
0.203311 0.708333 0.005
0.203224 0.75 0.005
0.203137 0.791667 0.005
0.20305 0.833333 0.005
0.202963 0.875 0.005
0.202876 0.916667 0.005
0.20279 0.958333 0.005
0.202703 1.0 0.005
0.245745 0.0 0.005
0.245641 0.0416667 0.005
0.245536 0.0833333 0.005
0.245432 0.125 0.005
0.245328 0.166667 0.005
0.245224 0.208333 0.005
0.245119 0.25 0.005
0.245015 0.291667 0.005
0.244911 0.333333 0.005
0.244807 0.375 0.005
0.244703 0.416667 0.005
0.244598 0.458333 0.005
0.244494 0.5 0.005
0.24439 0.541667 0.005
0.244286 0.583333 0.005
0.244181 0.625 0.005
0.244077 0.666667 0.005
0.243973 0.708333 0.005
0.243869 0.75 0.005
0.243764 0.791667 0.005
0.24366 0.833333 0.005
0.243556 0.875 0.005
0.243452 0.916667 0.005
0.243347 0.958333 0.005
0.243243 1.0 0.005
0.286702 0.0 0.005
0.286581 0.0416667 0.005
0.286459 0.0833333 0.005
0.286337 0.125 0.005
0.286216 0.166667 0.005
0.286094 0.208333 0.005
0.285973 0.25 0.005
0.285851 0.291667 0.005
0.285729 0.333333 0.005
0.285608 0.375 0.005
0.285486 0.416667 0.005
0.285365 0.458333 0.005
0.285243 0.5 0.005
0.285121 0.541667 0.005
0.285 0.583333 0.005
0.284878 0.625 0.005
0.284757 0.666667 0.005
0.284635 0.708333 0.005
0.284513 0.75 0.005
0.284392 0.791667 0.005
0.28427 0.833333 0.005
0.284149 0.875 0.005
0.284027 0.916667 0.005
0.283905 0.958333 0.005
0.283784 1.0 0.005
0.32766 0.0 0.005
0.327521 0.0416667 0.005
0.327382 0.0833333 0.005
0.327243 0.125 0.005
0.327104 0.166667 0.005
0.326965 0.208333 0.005
0.326826 0.25 0.005
0.326687 0.291667 0.005
0.326548 0.333333 0.005
0.326409 0.375 0.005
0.32627 0.416667 0.005
0.326131 0.458333 0.005
0.325992 0.5 0.005
0.325853 0.541667 0.005
0.325714 0.583333 0.005
0.325575 0.625 0.005
0.325436 0.666667 0.005
0.325297 0.708333 0.005
0.325158 0.75 0.005
0.325019 0.791667 0.005
0.32488 0.833333 0.005
0.324741 0.875 0.005
0.324602 0.916667 0.005
0.324463 0.958333 0.005
0.324324 1.0 0.005
0.368617 0.0 0.005
0.368461 0.0416667 0.005
0.368305 0.0833333 0.005
0.368148 0.125 0.005
0.367992 0.166667 0.005
0.367835 0.208333 0.005
0.367679 0.25 0.005
0.367523 0.291667 0.005
0.367366 0.333333 0.005
0.36721 0.375 0.005
0.367054 0.416667 0.005
0.366897 0.458333 0.005
0.366741 0.5 0.005
0.366585 0.541667 0.005
0.366428 0.583333 0.005
0.366272 0.625 0.005
0.366116 0.666667 0.005
0.365959 0.708333 0.005
0.365803 0.75 0.005
0.365647 0.791667 0.005
0.36549 0.833333 0.005
0.365334 0.875 0.005
0.365178 0.916667 0.005
0.365021 0.958333 0.005
0.364865 1.0 0.005
0.409575 0.0 0.005
0.409401 0.0416667 0.005
0.409227 0.0833333 0.005
0.409054 0.125 0.005
0.40888 0.166667 0.005
0.408706 0.208333 0.005
0.408532 0.25 0.005
0.408359 0.291667 0.005
0.408185 0.333333 0.005
0.408011 0.375 0.005
0.407838 0.416667 0.005
0.407664 0.458333 0.005
0.40749 0.5 0.005
0.407316 0.541667 0.005
0.407143 0.583333 0.005
0.406969 0.625 0.005
0.406795 0.666667 0.005
0.406621 0.708333 0.005
0.406448 0.75 0.005
0.406274 0.791667 0.005
0.4061 0.833333 0.005
0.405927 0.875 0.005
0.405753 0.916667 0.005
0.405579 0.958333 0.005
0.405405 1.0 0.005
0.450532 0.0 0.005
0.450341 0.0416667 0.005
0.45015 0.0833333 0.005
0.449959 0.125 0.005
0.449768 0.166667 0.005
0.449577 0.208333 0.005
0.449386 0.25 0.005
0.449195 0.291667 0.005
0.449003 0.333333 0.005
0.448812 0.375 0.005
0.448621 0.416667 0.005
0.44843 0.458333 0.005
0.448239 0.5 0.005
0.448048 0.541667 0.005
0.447857 0.583333 0.005
0.447666 0.625 0.005
0.447475 0.666667 0.005
0.447284 0.708333 0.005
0.447093 0.75 0.005
0.446901 0.791667 0.005
0.44671 0.833333 0.005
0.446519 0.875 0.005
0.446328 0.916667 0.005
0.446137 0.958333 0.005
0.445946 1.0 0.005
0.49149 0.0 0.005
0.491281 0.0416667 0.005
0.491073 0.0833333 0.005
0.490864 0.125 0.005
0.490656 0.166667 0.005
0.490447 0.208333 0.005
0.490239 0.25 0.005
0.49003 0.291667 0.005
0.489822 0.333333 0.005
0.489613 0.375 0.005
0.489405 0.416667 0.005
0.489197 0.458333 0.005
0.488988 0.5 0.005
0.48878 0.541667 0.005
0.488571 0.583333 0.005
0.488363 0.625 0.005
0.488154 0.666667 0.005
0.487946 0.708333 0.005
0.487737 0.75 0.005
0.487529 0.791667 0.005
0.48732 0.833333 0.005
0.487112 0.875 0.005
0.486903 0.916667 0.005
0.486695 0.958333 0.005
0.486486 1.0 0.005
0.531954 0.00563435 0.005
0.531749 0.0470663 0.005
0.531544 0.0884982 0.005
0.531338 0.12993 0.005
0.531133 0.171362 0.005
0.530928 0.212794 0.005
0.530722 0.254226 0.005
0.530517 0.295658 0.005
0.530312 0.33709 0.005
0.530107 0.378521 0.005
0.529901 0.419953 0.005
0.529696 0.461385 0.005
0.529491 0.502817 0.005
0.529285 0.544249 0.005
0.52908 0.585681 0.005
0.528875 0.627113 0.005
0.528669 0.668545 0.005
0.528464 0.709977 0.005
0.528259 0.751409 0.005
0.528054 0.79284 0.005
0.527848 0.834272 0.005
0.527643 0.875704 0.005
0.527438 0.917136 0.005
0.527232 0.958568 0.005
0.527027 1.0 0.005
0.572289 0.0127465 0.005
0.572093 0.0538821 0.005
0.571896 0.0950177 0.005
0.571699 0.136153 0.005
0.571502 0.177289 0.005
0.571306 0.218424 0.005
0.571109 0.25956 0.005
0.570912 0.300695 0.005
0.570715 0.341831 0.005
0.570519 0.382967 0.005
0.570322 0.424102 0.005
0.570125 0.465238 0.005
0.569928 0.506373 0.005
0.569732 0.547509 0.005
0.569535 0.588644 0.005
0.569338 0.62978 0.005
0.569142 0.670916 0.005
0.568945 0.712051 0.005
0.568748 0.753187 0.005
0.568551 0.794322 0.005
0.568355 0.835458 0.005
0.568158 0.876593 0.005
0.567961 0.917729 0.005
0.567764 0.958864 0.005
0.567568 1.0 0.005
0.612625 0.0198587 0.005
0.612436 0.0606979 0.005
0.612248 0.101537 0.005
0.61206 0.142376 0.005
0.611872 0.183216 0.005
0.611684 0.224055 0.005
0.611496 0.264894 0.005
0.611307 0.305733 0.005
0.611119 0.346572 0.005
0.610931 0.387412 0.005
0.610743 0.428251 0.005
0.610555 0.46909 0.005
0.610366 0.509929 0.005
0.610178 0.550769 0.005
0.60999 0.591608 0.005
0.609802 0.632447 0.005
0.609614 0.673286 0.005
0.609425 0.714125 0.005
0.609237 0.754965 0.005
0.609049 0.795804 0.005
0.608861 0.836643 0.005
0.608673 0.877482 0.005
0.608484 0.918322 0.005
0.608296 0.959161 0.005
0.608108 1.0 0.005
0.65296 0.0269708 0.005
0.65278 0.0675137 0.005
0.652601 0.108057 0.005
0.652421 0.148599 0.005
0.652241 0.189142 0.005
0.652062 0.229685 0.005
0.651882 0.270228 0.005
0.651702 0.310771 0.005
0.651523 0.351314 0.005
0.651343 0.391857 0.005
0.651164 0.4324 0.005
0.650984 0.472943 0.005
0.650804 0.513485 0.005
0.650625 0.554028 0.005
0.650445 0.594571 0.005
0.650265 0.635114 0.005
0.650086 0.675657 0.005
0.649906 0.7162 0.005
0.649726 0.756743 0.005
0.649547 0.797286 0.005
0.649367 0.837828 0.005
0.649188 0.878371 0.005
0.649008 0.918914 0.005
0.648828 0.959457 0.005
0.648649 1.0 0.005
0.693295 0.034083 0.005
0.693124 0.0743295 0.005
0.692953 0.114576 0.005
0.692782 0.154823 0.005
0.692611 0.195069 0.005
0.69244 0.235316 0.005
0.692269 0.275562 0.005
0.692098 0.315809 0.005
0.691926 0.356055 0.005
0.691755 0.396302 0.005
0.691584 0.436548 0.005
[...]
CELL_DATA 888
SCALARS P float 1
LOOKUP_TABLE default
100146.51228385132
100146.16385610339
100206.3691421129
100143.76284843656
100206.24157043186
100293.39280773506
100139.64009631236
100202.90816559872
100293.66567874048
100420.30289426337
100134.10767900693
100196.9656526895
100288.82902285736
100421.25799417774
100606.07995622224
100127.47938884397
100188.94257903309
100279.9229740295
100413.93230236601
100608.1715550711
100879.41545526808
100120.0647403159
100179.34167949877
100267.8649786526
100400.14328706298
100596.60393725954
100883.32036252265
101284.58669397159
100112.15582839263
100168.63918358626
100253.50186766812
100381.51333417579
100574.63352157622
100864.25030307082
101291.03508632813
101892.3012881231
100104.01521610947
100157.27098929058
100237.60563068948
100359.50739335496
100545.19386833221
100828.27334490794
101258.01439782948
101900.87351582717
102822.30129468095
100095.86810972623
100145.619502246
100220.85591747188
100335.4106321934
100510.86427058822
100780.83233087331
101197.41510773097
101840.20525402851
102825.8274794192
104297.89094905535
100087.89918565584
100134.0058552144
100203.826571718
100310.30419708494
100473.80605686066
100726.51512206403
101119.57488623436
101734.9445598311
102706.0844618648
104258.63530346389
106800.84698845958
100080.25318381008
100122.68826560622
100186.98241128423
100285.060219877
100435.74587842953
100668.95195244356
101032.66382815695
101605.02929997299
102516.97119308893
104002.15577468983
106546.97412394168
111589.40622846992
100073.03826399505
100111.86532099692
100170.68379074887
100260.35033360211
100397.99718761051
100610.86101324976
100942.67996292908
101464.78983646377
102296.73882193987
103650.27219330403
105950.4320802444
110328.67735253248
122751.98969489132
100066.33081844733
100101.68235532197
100155.1973420876
100236.66982323286
100361.51520932553
100554.17391480324
100853.76095515411
101323.72805940486
102069.30830831858
103272.36602028833
105275.53007533704
108853.86350981522
116496.61052003158
133104.36081897115
100060.18097450328
100092.23947903959
100140.70979741328
100214.36458352942
100326.95599184466
100500.18876420303
100768.60052679524
101187.74690680386
101848.48002829576
102903.61083140122
104624.46985246026
107547.26195972129
112933.96928758625
123388.35954903792
141227.30537129787
100054.61820283408
100083.59997818002
100127.34246462096
100193.65954014631
100294.74104465471
100449.72025371683
100688.8311073899
101060.24696777372
101641.6078025292
102560.2797684716
104031.7850595676
106441.79825702102
110536.18048040068
117782.32956333736
129986.1488062687
147825.66894858782
100049.65655139781
100075.7987272305
100115.16524226166
100174.68587079435
100265.11355440105
100403.22435979609
100615.33348925372
100942.96678806808
101452.13268036707
102248.80896196589
103505.7587482058
105511.36168624177
108758.67603723716
114154.35575727357
122920.14353973513
136001.70040142443
153275.7791191002
100045.29943302767
100068.84959761864
100104.20954508273
100157.50377461869
100238.18367417151
100360.90310654955
100548.47914068545
100836.58143306611
101281.20204242344
101970.6253280091
103044.71608459973
104726.03022117917
107366.89546666667
111579.08666031998
118196.30175662511
128021.10225204626
141385.80173286743
157807.54563518692
100041.5439802376
100062.75225838397
100094.47939065742
100142.12338521033
100213.96927803823
100322.78277331234
100488.29911666106
100741.09831217965
101128.65109509378
101724.6691263419
102643.41958180696
104060.79920142642
106242.23649839981
109630.57525771414
114821.96236700812
122443.44973369256
132909.53898908765
146161.58691386654
161579.67898818615
100038.38490854614
100057.49821763592
100085.96089821216
100128.52053989301
100192.42486698962
100288.77496617375
100434.61313504424
100656.13482068224
100993.59819261308
101508.7274607807
102295.60258553826
103495.72235621496
105316.3053269144
108094.40690801357
112278.17097131434
118359.69464008817
126729.3306329992
137495.08141495322
150371.99566119054
164711.77038606402
100035.81837277362
100053.07626612931
100078.63104545635
100116.65129194598
100173.46758496398
100258.72088075303
100387.11627318892
100581.08975148338
100874.81346254487
101320.12799644981
101994.99796036635
103014.77039555302
104545.15944596815
106851.65565076654
110284.91798309665
115241.23903839257
122069.49383574416
130937.00149968962
141735.9090224932
154064.47252619817
167298.79799851976
100033.84634678651
100049.47800323511
100072.46502197305
100106.4625380185
100156.99384057031
100232.42511140702
100345.44026557765
100515.2587759636
100770.92792611284
101156.10877358579
101735.776764081
102604.90598986742
103898.28817710566
105829.76750190182
108681.67715033467
112781.17328622735
118438.8559814858
125846.33542787304
134987.69190269918
145617.1135851598
157285.82096226737
169419.46974034223
100032.48250500168
100046.70454507758
100067.44421529895
100097.90340507623
100142.89688002295
100209.68061939519
100309.1951050773
100457.91392379883
100680.56185194988
101014.01635376588
101512.68824641244
102255.3889278875
103353.09297526986
104980.66084009224
107369.78529971521
110795.19013439219
115534.54347958976
121790.09245322412
129606.04820740061
138830.6816093441
149139.3226569724
160080.8475595205
171141.0050822197
100031.7621915123
100044.77622199332
100063.56626434569
100090.93571319686
100131.07927188269
100190.28825850904
100277.99993377137
100408.34548225132
100602.40365168608
100891.40408915037
101321.09931112286
101957.30196319245
102892.19820165909
104270.30841541305
106284.00605136869
109166.53071176792
113166.26118815948
118488.17898053181
125220.47114446011
133283.63651199598
142434.7933176661
152313.1349086474
162492.11590002087
172522.00281277727
100043.74949553492
100060.85993327019
100085.54870253504
100121.46882211797
100174.07389265021
100251.50648676293
100365.89873702257
100535.24867592551
100786.06763753804
101156.96914475218
101703.20524026598
102501.88655800451
103673.3213873922
105378.56933597756
107816.75752273531
111209.44878801913
115758.34712798687
121583.21414953582
128665.41657433986
136830.61038665348
145782.34105985297
155154.1275201059
164559.41206428112
173611.07194807264
100059.41119580573
100081.78059708941
100114.03755471877
100160.90825282116
100229.41978417087
100329.99539176638
100478.02526840867
100696.0683713689
101016.82036701728
101486.8676055382
102171.079962753
103170.1648166891
104619.70228691022
106690.17562785087
109578.36884278298
113477.7012545319
118528.5739687824
124762.83875391664
132070.5897517563
140211.73756562834
148865.82767012666
157681.64145392238
166319.27911834384
174453.23695568417
100079.75656131664
100108.83312524913
100150.73302211938
100211.51973974891
100300.15417908893
100429.81407311051
100619.73455406705
100897.68149040564
101303.08606766723
101890.76770444172
102745.40491287895
103981.55643429168
105745.40414923808
108210.86434372251
111559.52996116657
115942.66409023633
121431.36205950512
127975.01611461543
135392.03940128346
143402.79869767374
151684.96958877583
159916.38796375445
167806.54826894344
175082.73024853106
100106.03139745434
100143.60305129028
100197.69757334953
100276.01948282418
100389.86340939946
100555.65983860457
100797.04890142789
101147.51493937739
101653.56825925481
102386.6621499192
103443.87802276363
104950.66806125548
107059.99389960384
109939.41109151793
113743.18491279744
118570.28168073218
124421.11353445903
131173.442009219
138594.82024645153
146388.26586451486
154244.88289947744
161880.3678219147
169049.83933042252
175533.7076394545
100139.75916693395
100188.01080750358
100257.40265238377
100357.61834310013
100502.71148365905
100712.85287883379
101016.55891322705
101453.42342128683
102083.91232248559
102990.51106911011
104280.93141398788
106089.12387667406
108567.66608929944
111867.78352821377
116106.01009139087
121323.6008766224
127454.21556164057
134318.4049969147
141652.34089407662
149159.43106657988
156554.40017563236
163594.58099640973
170079.06178928737
175831.32550936667
100182.78333378612
100244.35723324175
100332.77323660352
100460.05782549674
100643.44850202726
100907.28650029661
101285.37235728277
101829.02166656841
102608.4428867336
103716.14406570914
105269.08586840704
107404.64935387504
110267.01103940424
113981.66447787684
118620.01299085737
124164.54761192414
130490.45349784507
137376.52459737816
144544.98090324947
151712.08080857352
158624.3755046978
165079.30250898242
170917.04433918287
176002.7222305203
100237.31174339334
100315.3665992677
100427.22650288163
100587.63046720534
100817.39168442751
101145.42430668043
101615.3809377115
102287.12478828315
103240.12907467855
104576.26622818722
106418.19829436182
108900.54755492612
112151.05458890453
116261.49029194754
121254.08146756377
127055.64846428629
133493.61745577326
140320.49221908164
147259.00628247616
154047.19142922445
160467.07663464465
166354.5194753884
171587.5927130521
176063.18150497615
100305.95906799195
100404.22782092217
100544.70198571974
100745.18531403322
101030.4528319789
101437.69192284098
102018.02548718055
102839.75539263495
103991.43856773342
105581.86530443486
107734.76563114676
110575.39765548348
114207.49783983233
118683.42612950553
123975.42919139708
129960.9828642243
136431.95182279963
143128.94052706257
149785.60939502137
156167.85932974447
162095.0043327789
167438.851196497
172109.48862692004
176036.51553089073
100391.78968568718
100514.63184079318
100689.68642372612
100938.17879200542
101291.83062733577
101794.33199290815
102504.39054912154
103498.86321092852
104873.76611131782
106741.45667639119
109221.45783066048
112422.95233061854
116419.4143447431
121220.50278308788
126750.88616666183
132847.3094546702
139278.3129745985
145784.21182641716
152119.20063520747
158080.2433113657
163521.67639647078
168349.15935644376
172501.46715151257
175934.48378970555
100498.35751372426
100650.80734131073
100867.27510130267
101174.81357828839
101610.74547539155
102225.52524891181
103085.75611029624
104275.84166588573
105896.85275517168
108060.6177177378
110876.82632079229
114432.40107196134
118765.90066973233
123843.71134680983
129547.90691102462
135683.84527823149
142009.79696891995
148274.70698187908
154258.08003985413
159790.4805373495
164759.40508200534
169100.45416407086
172779.35364550276
175776.78579002203
100629.7499545439
100817.59330667526
101084.8902931534
101463.44260876697
101996.5432238552
102741.82466178268
103773.20535649828
105180.96854298118
107068.19197775784
109541.53241218082
112695.16207569157
116588.60459015063
121222.92177555441
126522.96575906605
132335.296347258
138444.20327874247
144606.7057770653
150589.97227524992
156201.72739568853
161305.21985124383
165819.9580672219
169707.8633447938
172959.75141632353
175583.10227459294
100790.66401373007
101021.84452698861
101350.18506174804
101812.67955992802
102459.06344893236
103353.8580877118
104577.20575712605
106222.98226298206
108392.57587499717
111182.58656041094
114666.56200689076
118872.72558755828
123764.00258230612
129227.98340882543
135083.1120556932
141103.76292909603
147053.96180733596
152723.4950914638
157951.19242422644
162631.83130687996
166713.64022763586
170184.33527742611
173059.20599798567
175389.58395583965
100987.64278935599
101270.71036705853
101671.16742263704
102231.70078312443
103008.38467877527
104071.95535692398
105507.11285946905
107408.48877094583
109871.63898098022
112978.35633927536
116777.0414349695
121262.62835533355
126361.24507250926
131928.51978470324
137764.28592544468
143640.75753726496
149337.20144109445
154669.94229349575
159507.74283494364
163776.1420357174
167450.08761300173
170542.07281106795
173099.7776303445
175241.3849738966
101227.53997174368
101571.74239922353
102056.44641978337
102730.04559191078
103654.5607379874
104905.74964534109
106570.7113974042
108741.48973362696
111503.53504265613
114919.3166313379
119008.96019220547
123733.16450653781
128985.21404921848
134595.4338571126
140352.99830523133
146036.47683878217
151445.4236088674
156424.38876395926
160871.92588278584
164742.25662417745
168035.53044720163
170790.53790372983
173103.67842283688
101517.65209087759
101933.10038413838
102515.05507446188
103317.3710699944
104407.21199429163
105863.73142827384
107773.75045377712
110222.98807967837
113282.65072717362
116992.07388716441
121341.19402769141
126257.97018931588
131606.57895692566
137200.17935016728
142825.31364434186
148273.21618738247
153367.33563588385
157980.748591873
162041.7189638924
165530.10427322693
168468.93400559382
170929.7891033528
101865.8766239827
102363.423619763
103056.25579014634
104003.15006155279
105275.14980626681
106952.74469592291
109119.3470526411
111850.61042936551
115199.53046170161
119179.49084452208
123749.68451511131
128807.86157768275
134195.20058342454
139715.11312331894
145158.09327015592
150333.61705546544
155091.0350088263
159331.86445524465
163010.0586752396
166128.17992877544
168728.39963963928
102280.60203774211
102871.62792247607
103689.27083870236
104796.27608896804
106265.94729341909
108177.50657472669
110607.66428964108
113618.19747319925
117240.42304888829
121460.3297135925
126207.07944537573
131352.25029205403
136720.69120480336
142112.197147282
147328.08526711474
152199.46339542698
156601.59080497615
160461.99408157627
163755.86473808135
166494.47660027974
102770.5424991858
103466.68039133439
104422.93804915278
105704.67729087008
107385.40162573359
109540.1553739872
112235.44180952552
115515.73208080378
119388.12547889345
123810.28893994918
128684.15962040916
133859.72809665403
139151.81255839896
144362.97784205666
149310.76061959343
153848.27967859374
157876.09742151166
161339.6678489737
164217.29839313624
103344.48429035136
104157.30216736607
105265.33271176742
106734.87094870713
108637.04709712171
111039.6705003457
113995.567897568
117528.64760773789
121620.75968837122
126201.63562451936
131148.6082600364
136296.50239569668
141455.61176254426
146437.1980572548
151076.92178175633
155249.41203931396
158871.68736023226
161886.05002935656
104011.03497029872
104951.58654177107
106223.35951047337
107891.3756240273
110021.67105455123
112671.4736428521
115876.60895831694
119638.39157041493
123912.16882565655
128601.91834999007
133565.36388549727
138626.01512276477
143595.98952313839
148298.7332590238
152587.49068126068
156349.83741053563
159493.5864237137
104778.26971495415
105856.59347524632
107302.17183923328
109176.21139194976
111536.51980663961
114426.64446144753
117862.63388331357
121821.32170891677
126232.083843671
130976.3517157954
135895.17311476503
140807.44605609035
145530.51760511403
149900.17323054688
153778.2244301614
157037.69909216024
105653.2934656035
106877.87772200847
108504.70372360441
110588.36389172667
113175.3017010948
116291.97145280436
119932.56072031376
124048.6591822501
128545.10756859802
133283.2915333294
138093.10637902596
142792.36512591835
147204.1492018925
151167.4886890763
154523.47528394387
106641.79950788303
108018.89514158608
109831.06464043821
112123.03285391394
114926.70034514843
118248.70088037236
122059.74084637975
126285.86197634465
130809.63010066106
135475.8884292818
140106.89629899862
144518.72680643763
148533.25307361296
151961.15296077076
107747.53139557438
109280.44333596427
111277.60803361396
113770.78853530498
116774.16825184642
120272.24551538525
124210.74093485177
128491.50667599544
132976.72424888005
137496.98712749622
141867.2082793056
145895.05529779135
149366.1111263539
108971.59284260952
110659.89475095228
112836.74090276904
115517.44621865217
118695.32570483458
122331.09261676215
126344.91526816494
130615.63129229227
134985.8764197253
139272.89999615963
143274.95938875718
146757.75132430554
110311.9020749743
112150.48706711696
114495.38194818456
117341.98135048363
120660.4322987933
124385.67976657966
128412.30219817723
132596.13370529283
136759.6725419198
140697.37108790677
144158.34529491718
111762.22350663916
113740.47418514949
116234.52270899083
119216.71627521463
122631.38870420356
126386.3240156385
130349.73620793183
134352.43356117627
138187.34064339896
141592.25232032593
113311.4456026123
115411.98990130231
118027.8219571062
121104.95107894384
124559.42983295348
128269.70405193526
132074.73928341264
135769.5816289744
139084.30188385848
114942.37635226651
117139.88887018399
119840.10212340333
122959.05295645783
126381.42419614588
129952.62795231909
133470.33237620373
136660.7730628181
116630.52819210888
118890.14451035189
121624.85738332922
124717.19278383451
128014.46643575787
131317.17092775475
134348.459771623
118342.67944703376
120617.63623835542
123321.77048887372
126296.95596720368
129341.41478191422
132176.10058760922
120034.49446604295
122262.77889421016
124849.26936745558
127582.04689411362
130176.60672250703
121647.16766366824
123745.70805458623
126093.26420214266
128391.15564044526
123101.76318292515
124954.16140465066
126875.92103362511
124287.23261287004
125713.93124575308
125032.35020125753
SCALARS T float 1
LOOKUP_TABLE default
300.1264615573692
300.1261411103315
300.1786083596536
300.1240427686172
300.1784537725859
300.25485126032754
300.1204529456702
300.1755137688412
300.25498888020036
300.36685570236205
300.1156432800314
300.1703060269071
300.2506687405382
300.3674664371501
300.53235463665465
300.1098873786674
300.16329248245853
300.2427968401523
300.3608148595654
300.533693060435
300.7787230571918
300.10345499321505
300.15491381436686
300.2321796865434
300.3484936785811
300.5229760012593
300.7810653697523
301.1491280650491
300.09660028100274
300.14558734941926
300.2195644731684
300.3319400600141
300.5030809031793
300.7629808463443
301.152402664699
301.7137289999136
300.08955118143047
300.13569425237216
300.20563207102293
300.3124567916272
300.47663084624133
300.7298878652702
301.1203074654657
301.71594826273554
302.59193200691857
300.0825026653499
300.12556783304854
300.1909801326376
300.29118562153224
300.4459402912352
300.6867053374778
301.0635891621984
301.655652267245
302.58310314738407
304.00182762005215
300.0756141046996
300.1154868827629
300.1761109633327
300.26908298741586
300.4129444878094
300.63758980465224
300.99169386853475
301.55538927873147
302.4624016773274
303.9406775668442
306.38640219419096
300.0690099414746
300.10567452819106
300.1614290953633
300.246915442889
300.37918007728064
300.58581738521633
300.9120929848484
301.4335572096769
302.27957238776366
303.6824448789917
306.1080147856082
310.7842163573909
300.06278274801576
300.0963014277772
300.1472459778348
300.2252683799589
300.34580521382435
300.53381961314983
300.8302368495916
301.30336197809413
302.07013487510653
303.3396237044655
305.5212300018564
309.6107468317996
320.0297540267914
300.05699752331645
300.08749163267896
300.1337901147966
300.20456897230105
300.3136518104456
300.48330128501067
300.74983717398845
301.1734750531778
301.8562284291735
302.9766803463728
304.8670520256225
308.2307035266535
315.0290085071028
328.0776090890858
300.0516965542061
300.0793298209928
300.1212197947885
300.18511149914565
300.2832817512833
300.4353862528975
300.6732612546006
301.0491795315601
301.6504411120308
302.62619165632333
304.2405252171486
306.9926466152983
311.932027662143
320.81674862842596
334.1397830156599
300.04690433438884
300.07186877912466
300.1096362220033
300.16708360751744
300.2550474332659
300.39075981691315
300.60189760694004
300.9334152702983
301.4592642498563
302.3028843750355
303.674114663042
305.93861529813665
309.7463556633832
316.19645080327757
326.1341449495869
338.92927907500666
300.04263213003344
300.0651368243867
300.0990960768438
300.1505911119546
300.2291438993281
300.3497863403646
300.53645124342387
300.82758484125105
301.28551336147234
302.0121453206615
303.1752234380785
305.0511480776246
308.085609001757
313.0135614070497
320.56797889124863
330.8133130168559
342.80179635166985
300.03888213628665
300.05914429743285
300.08962298019526
300.135678520028
300.2056503896205
300.31260674484776
300.4771727277376
300.7321260605713
301.1298856694789
301.7546396432292
302.7415003792835
304.30478812711385
306.7712316421602
310.66739055744665
316.5749865194241
324.7664983756514
334.8754140409465
345.96607496224425
300.0356512420748
300.0538894828492
300.08121723957964