# vtk DataFile Version 2.0
JuliaCFD
ASCII
DATASET UNSTRUCTURED_GRID

POINTS 1900 float
0.0 0.0 0.005
0.0 0.0416667 0.005
0.0 0.0833333 0.005
0.0 0.125 0.005
0.0 0.166667 0.005
0.0 0.208333 0.005
0.0 0.25 0.005
0.0 0.291667 0.005
0.0 0.333333 0.005
0.0 0.375 0.005
0.0 0.416667 0.005
0.0 0.458333 0.005
0.0 0.5 0.005
0.0 0.541667 0.005
0.0 0.583333 0.005
0.0 0.625 0.005
0.0 0.666667 0.005
0.0 0.708333 0.005
0.0 0.75 0.005
0.0 0.791667 0.005
0.0 0.833333 0.005
0.0 0.875 0.005
0.0 0.916667 0.005
0.0 0.958333 0.005
0.0 1.0 0.005
0.0409575 0.0 0.005
0.0409401 0.0416667 0.005
0.0409227 0.0833333 0.005
0.0409054 0.125 0.005
0.040888 0.166667 0.005
0.0408706 0.208333 0.005
0.0408532 0.25 0.005
0.0408359 0.291667 0.005
0.0408185 0.333333 0.005
0.0408011 0.375 0.005
0.0407838 0.416667 0.005
0.0407664 0.458333 0.005
0.040749 0.5 0.005
0.0407316 0.541667 0.005
0.0407143 0.583333 0.005
0.0406969 0.625 0.005
0.0406795 0.666667 0.005
0.0406621 0.708333 0.005
0.0406448 0.75 0.005
0.0406274 0.791667 0.005
0.04061 0.833333 0.005
0.0405927 0.875 0.005
0.0405753 0.916667 0.005
0.0405579 0.958333 0.005
0.0405405 1.0 0.005
0.0819149 0.0 0.005
0.0818802 0.0416667 0.005
0.0818455 0.0833333 0.005
0.0818107 0.125 0.005
0.081776 0.166667 0.005
0.0817412 0.208333 0.005
0.0817065 0.25 0.005
0.0816717 0.291667 0.005
0.081637 0.333333 0.005
0.0816022 0.375 0.005
0.0815675 0.416667 0.005
0.0815328 0.458333 0.005
0.081498 0.5 0.005
0.0814633 0.541667 0.005
0.0814285 0.583333 0.005
0.0813938 0.625 0.005
0.081359 0.666667 0.005
0.0813243 0.708333 0.005
0.0812895 0.75 0.005
0.0812548 0.791667 0.005
0.0812201 0.833333 0.005
0.0811853 0.875 0.005
0.0811506 0.916667 0.005
0.0811158 0.958333 0.005
0.0810811 1.0 0.005
0.122872 0.0 0.005
0.12282 0.0416667 0.005
0.122768 0.0833333 0.005
0.122716 0.125 0.005
0.122664 0.166667 0.005
0.122612 0.208333 0.005
0.12256 0.25 0.005
0.122508 0.291667 0.005
0.122455 0.333333 0.005
0.122403 0.375 0.005
0.122351 0.416667 0.005
0.122299 0.458333 0.005
0.122247 0.5 0.005
0.122195 0.541667 0.005
0.122143 0.583333 0.005
0.122091 0.625 0.005
0.122039 0.666667 0.005
0.121986 0.708333 0.005
0.121934 0.75 0.005
0.121882 0.791667 0.005
0.12183 0.833333 0.005
0.121778 0.875 0.005
0.121726 0.916667 0.005
0.121674 0.958333 0.005
0.121622 1.0 0.005
0.16383 0.0 0.005
0.16376 0.0416667 0.005
0.163691 0.0833333 0.005
0.163621 0.125 0.005
0.163552 0.166667 0.005
0.163482 0.208333 0.005
0.163413 0.25 0.005
0.163343 0.291667 0.005
0.163274 0.333333 0.005
0.163204 0.375 0.005
0.163135 0.416667 0.005
0.163066 0.458333 0.005
0.162996 0.5 0.005
0.162927 0.541667 0.005
0.162857 0.583333 0.005
0.162788 0.625 0.005
0.162718 0.666667 0.005
0.162649 0.708333 0.005
0.162579 0.75 0.005
0.16251 0.791667 0.005
0.16244 0.833333 0.005
0.162371 0.875 0.005
0.162301 0.916667 0.005
0.162232 0.958333 0.005
0.162162 1.0 0.005
0.204787 0.0 0.005
0.2047 0.0416667 0.005
0.204614 0.0833333 0.005
0.204527 0.125 0.005
0.20444 0.166667 0.005
0.204353 0.208333 0.005
0.204266 0.25 0.005
0.204179 0.291667 0.005
0.204092 0.333333 0.005
0.204006 0.375 0.005
0.203919 0.416667 0.005
0.203832 0.458333 0.005
0.203745 0.5 0.005
0.203658 0.541667 0.005
0.203571 0.583333 0.005
0.203484 0.625 0.005
0.203398 0.666667 0.005
0.203311 0.708333 0.005
0.203224 0.75 0.005
0.203137 0.791667 0.005
0.20305 0.833333 0.005
0.202963 0.875 0.005
0.202876 0.916667 0.005
0.20279 0.958333 0.005
0.202703 1.0 0.005
0.245745 0.0 0.005
0.245641 0.0416667 0.005
0.245536 0.0833333 0.005
0.245432 0.125 0.005
0.245328 0.166667 0.005
0.245224 0.208333 0.005
0.245119 0.25 0.005
0.245015 0.291667 0.005
0.244911 0.333333 0.005
0.244807 0.375 0.005
0.244703 0.416667 0.005
0.244598 0.458333 0.005
0.244494 0.5 0.005
0.24439 0.541667 0.005
0.244286 0.583333 0.005
0.244181 0.625 0.005
0.244077 0.666667 0.005
0.243973 0.708333 0.005
0.243869 0.75 0.005
0.243764 0.791667 0.005
0.24366 0.833333 0.005
0.243556 0.875 0.005
0.243452 0.916667 0.005
0.243347 0.958333 0.005
0.243243 1.0 0.005
0.286702 0.0 0.005
0.286581 0.0416667 0.005
0.286459 0.0833333 0.005
0.286337 0.125 0.005
0.286216 0.166667 0.005
0.286094 0.208333 0.005
0.285973 0.25 0.005
0.285851 0.291667 0.005
0.285729 0.333333 0.005
0.285608 0.375 0.005
0.285486 0.416667 0.005
0.285365 0.458333 0.005
0.285243 0.5 0.005
0.285121 0.541667 0.005
0.285 0.583333 0.005
0.284878 0.625 0.005
0.284757 0.666667 0.005
0.284635 0.708333 0.005
0.284513 0.75 0.005
0.284392 0.791667 0.005
0.28427 0.833333 0.005
0.284149 0.875 0.005
0.284027 0.916667 0.005
0.283905 0.958333 0.005
0.283784 1.0 0.005
0.32766 0.0 0.005
0.327521 0.0416667 0.005
0.327382 0.0833333 0.005
0.327243 0.125 0.005
0.327104 0.166667 0.005
0.326965 0.208333 0.005
0.326826 0.25 0.005
0.326687 0.291667 0.005
0.326548 0.333333 0.005
0.326409 0.375 0.005
0.32627 0.416667 0.005
0.326131 0.458333 0.005
0.325992 0.5 0.005
0.325853 0.541667 0.005
0.325714 0.583333 0.005
0.325575 0.625 0.005
0.325436 0.666667 0.005
0.325297 0.708333 0.005
0.325158 0.75 0.005
0.325019 0.791667 0.005
0.32488 0.833333 0.005
0.324741 0.875 0.005
0.324602 0.916667 0.005
0.324463 0.958333 0.005
0.324324 1.0 0.005
0.368617 0.0 0.005
0.368461 0.0416667 0.005
0.368305 0.0833333 0.005
0.368148 0.125 0.005
0.367992 0.166667 0.005
0.367835 0.208333 0.005
0.367679 0.25 0.005
0.367523 0.291667 0.005
0.367366 0.333333 0.005
0.36721 0.375 0.005
0.367054 0.416667 0.005
0.366897 0.458333 0.005
0.366741 0.5 0.005
0.366585 0.541667 0.005
0.366428 0.583333 0.005
0.366272 0.625 0.005
0.366116 0.666667 0.005
0.365959 0.708333 0.005
0.365803 0.75 0.005
0.365647 0.791667 0.005
0.36549 0.833333 0.005
0.365334 0.875 0.005
0.365178 0.916667 0.005
0.365021 0.958333 0.005
0.364865 1.0 0.005
0.409575 0.0 0.005
0.409401 0.0416667 0.005
0.409227 0.0833333 0.005
0.409054 0.125 0.005
0.40888 0.166667 0.005
0.408706 0.208333 0.005
0.408532 0.25 0.005
0.408359 0.291667 0.005
0.408185 0.333333 0.005
0.408011 0.375 0.005
0.407838 0.416667 0.005
0.407664 0.458333 0.005
0.40749 0.5 0.005
0.407316 0.541667 0.005
0.407143 0.583333 0.005
0.406969 0.625 0.005
0.406795 0.666667 0.005
0.406621 0.708333 0.005
0.406448 0.75 0.005
0.406274 0.791667 0.005
0.4061 0.833333 0.005
0.405927 0.875 0.005
0.405753 0.916667 0.005
0.405579 0.958333 0.005
0.405405 1.0 0.005
0.450532 0.0 0.005
0.450341 0.0416667 0.005
0.45015 0.0833333 0.005
0.449959 0.125 0.005
0.449768 0.166667 0.005
0.449577 0.208333 0.005
0.449386 0.25 0.005
0.449195 0.291667 0.005
0.449003 0.333333 0.005
0.448812 0.375 0.005
0.448621 0.416667 0.005
0.44843 0.458333 0.005
0.448239 0.5 0.005
0.448048 0.541667 0.005
0.447857 0.583333 0.005
0.447666 0.625 0.005
0.447475 0.666667 0.005
0.447284 0.708333 0.005
0.447093 0.75 0.005
0.446901 0.791667 0.005
0.44671 0.833333 0.005
0.446519 0.875 0.005
0.446328 0.916667 0.005
0.446137 0.958333 0.005
0.445946 1.0 0.005
0.49149 0.0 0.005
0.491281 0.0416667 0.005
0.491073 0.0833333 0.005
0.490864 0.125 0.005
0.490656 0.166667 0.005
0.490447 0.208333 0.005
0.490239 0.25 0.005
0.49003 0.291667 0.005
0.489822 0.333333 0.005
0.489613 0.375 0.005
0.489405 0.416667 0.005
0.489197 0.458333 0.005
0.488988 0.5 0.005
0.48878 0.541667 0.005
0.488571 0.583333 0.005
0.488363 0.625 0.005
0.488154 0.666667 0.005
0.487946 0.708333 0.005
0.487737 0.75 0.005
0.487529 0.791667 0.005
0.48732 0.833333 0.005
0.487112 0.875 0.005
0.486903 0.916667 0.005
0.486695 0.958333 0.005
0.486486 1.0 0.005
0.531954 0.00563435 0.005
0.531749 0.0470663 0.005
0.531544 0.0884982 0.005
0.531338 0.12993 0.005
0.531133 0.171362 0.005
0.530928 0.212794 0.005
0.530722 0.254226 0.005
0.530517 0.295658 0.005
0.530312 0.33709 0.005
0.530107 0.378521 0.005
0.529901 0.419953 0.005
0.529696 0.461385 0.005
0.529491 0.502817 0.005
0.529285 0.544249 0.005
0.52908 0.585681 0.005
0.528875 0.627113 0.005
0.528669 0.668545 0.005
0.528464 0.709977 0.005
0.528259 0.751409 0.005
0.528054 0.79284 0.005
0.527848 0.834272 0.005
0.527643 0.875704 0.005
0.527438 0.917136 0.005
0.527232 0.958568 0.005
0.527027 1.0 0.005
0.572289 0.0127465 0.005
0.572093 0.0538821 0.005
0.571896 0.0950177 0.005
0.571699 0.136153 0.005
0.571502 0.177289 0.005
0.571306 0.218424 0.005
0.571109 0.25956 0.005
0.570912 0.300695 0.005
0.570715 0.341831 0.005
0.570519 0.382967 0.005
0.570322 0.424102 0.005
0.570125 0.465238 0.005
0.569928 0.506373 0.005
0.569732 0.547509 0.005
0.569535 0.588644 0.005
0.569338 0.62978 0.005
0.569142 0.670916 0.005
0.568945 0.712051 0.005
0.568748 0.753187 0.005
0.568551 0.794322 0.005
0.568355 0.835458 0.005
0.568158 0.876593 0.005
0.567961 0.917729 0.005
0.567764 0.958864 0.005
0.567568 1.0 0.005
0.612625 0.0198587 0.005
0.612436 0.0606979 0.005
0.612248 0.101537 0.005
0.61206 0.142376 0.005
0.611872 0.183216 0.005
0.611684 0.224055 0.005
0.611496 0.264894 0.005
0.611307 0.305733 0.005
0.611119 0.346572 0.005
0.610931 0.387412 0.005
0.610743 0.428251 0.005
0.610555 0.46909 0.005
0.610366 0.509929 0.005
0.610178 0.550769 0.005
0.60999 0.591608 0.005
0.609802 0.632447 0.005
0.609614 0.673286 0.005
0.609425 0.714125 0.005
0.609237 0.754965 0.005
0.609049 0.795804 0.005
0.608861 0.836643 0.005
0.608673 0.877482 0.005
0.608484 0.918322 0.005
0.608296 0.959161 0.005
0.608108 1.0 0.005
0.65296 0.0269708 0.005
0.65278 0.0675137 0.005
0.652601 0.108057 0.005
0.652421 0.148599 0.005
0.652241 0.189142 0.005
0.652062 0.229685 0.005
0.651882 0.270228 0.005
0.651702 0.310771 0.005
0.651523 0.351314 0.005
0.651343 0.391857 0.005
0.651164 0.4324 0.005
0.650984 0.472943 0.005
0.650804 0.513485 0.005
0.650625 0.554028 0.005
0.650445 0.594571 0.005
0.650265 0.635114 0.005
0.650086 0.675657 0.005
0.649906 0.7162 0.005
0.649726 0.756743 0.005
0.649547 0.797286 0.005
0.649367 0.837828 0.005
0.649188 0.878371 0.005
0.649008 0.918914 0.005
0.648828 0.959457 0.005
0.648649 1.0 0.005
0.693295 0.034083 0.005
0.693124 0.0743295 0.005
0.692953 0.114576 0.005
0.692782 0.154823 0.005
0.692611 0.195069 0.005
0.69244 0.235316 0.005
0.692269 0.275562 0.005
0.692098 0.315809 0.005
0.691926 0.356055 0.005
0.691755 0.396302 0.005
0.691584 0.436548 0.005
[...]
CELL_DATA 888
SCALARS P float 1
LOOKUP_TABLE default
100139.154810026
100138.8114543531
100196.28256685285
100136.44833131995
100196.15582139863
100279.75132867276
100132.39179039646
100192.87247518242
100280.01726556434
100402.0397766626
100126.950240459
100187.02125354356
100275.24686697355
100402.9751407111
100581.81761924151
100120.43397559306
100179.12457710342
100266.4672241753
100395.73798503849
100583.86895687866
100847.37588981102
100113.14899346115
100169.67972912795
100254.58584169374
100382.12529486272
100572.42138278559
100851.20777647814
101242.47742039547
100105.38384713119
100159.15771401272
100240.44096185025
100363.74359471584
100550.69938745396
100832.30352151109
101248.80064313885
101837.17167341894
100097.3975956669
100147.98932457941
100224.79662913711
100342.04427524561
100521.61126318801
100796.68083373776
101216.01451802666
101845.53674587085
102750.36099864563
100089.4120550405
100136.55201002113
100208.32496978831
100318.30028277075
100487.71479306514
100749.74178660354
101155.92766481031
101785.21124967777
102753.55775876182
104204.2705416227
100081.60868808001
100125.1621695319
100191.59271869315
100293.581556534
100451.15240623288
100696.0398871063
101078.81068315741
101680.70393576592
102634.33908632337
104164.53337289876
106679.21875132188
100074.12924302183
100114.0735778479
100175.05804288689
100268.74992701977
100413.63395010353
100639.17605215595
100992.77844513192
101551.83994030989
102446.35348655298
103908.90863013973
106424.81543757798
111431.0861203154
100067.07913397647
100103.48071501197
100159.07515901708
100244.46766925187
100376.45798808805
100581.84337134633
100903.78361951553
101412.86077649487
102227.66029640601
103558.74376317259
105829.78299465001
110170.61832831867
122542.59167859165
100060.53226208403
100093.52516744749
100143.90510647111
100221.22161899507
100340.56657505491
100525.95199405077
100815.9267491725
101273.19921926285
102002.03987980714
103183.0991080042
105157.53931722292
108698.70182535508
116293.04199563384
132837.47100722027
100054.5365139718
100084.30366151268
100129.7295723201
100199.35011405664
100306.60422132145
100472.78174117937
100731.87111799706
101138.70439263685
101783.19033159032
102816.9357469391
104509.7902886189
107396.2298866256
112736.1857041534
123131.17176691671
140898.6530566288
100049.1193557637
100075.87645396781
100116.665355097
100179.0713828696
100274.9823541037
100423.13171185652
100653.22412999046
101012.73473327229
101578.39030400796
102476.38397106527
103920.78026884707
106295.54241945843
110344.6650870832
117533.62374833506
129668.21756547116
147429.97908372383
100044.29304638796
100068.27571899259
100104.77835000552
100160.5106925616
100245.93537671976
100377.44463001394
100580.84597049607
100896.99551460252
101391.02472723513
102167.78080514984
103398.61154805821
105370.21720971189
108573.82821757786
113914.1432872356
122612.32951267905
135615.99528965124
152807.15561571252
100040.05939867046
100061.51292906818
100094.09643064253
100143.72306487637
100219.5658547499
100335.91124653854
100515.09102189585
100792.13523868618
101222.1982849362
101892.48221595705
102941.48930552679
104590.1394635452
107188.94331426246
111347.60214105013
117898.78060696778
127646.02559981158
140925.10762786947
157259.64427095838
100036.41410128228
100055.5856157256
100084.62048732715
100128.71409257635
100195.88508389112
100298.54826461962
100455.9762136801
100698.14002256429
101071.71323526026
101649.37636259363
102544.09240759877
103930.17494486444
106071.25172784268
109407.98744285862
114535.08597410088
122079.79085170476
132458.94363736938
145618.47548055596
160945.78732823484
100033.35054410293
100050.48336539305
100076.33387286846
100115.45564612324
100174.84189462797
100265.25914235113
100403.30949953376
100614.60999060971
100938.66223070401
101436.21119339396
102200.0938498679
103370.285792134
105152.23464836057
107880.75274699554
112002.2111616119
118008.20871269114
126290.49389701175
136960.54059480331
149738.81073688326
163984.86960953794
100030.86362066198
100046.19320586331
100069.21108001258
100103.90027135151
100156.34848530576
100235.87813697188
100356.77612454783
100540.92989179016
100821.79505409814
101250.28449227658
101903.1820554118
102894.37614014829
104387.854381907
106646.84066465225
110019.98287317484
114902.49988698552
121643.80299118515
130413.75037135222
141108.85580861065
153333.3754064811
166471.63158889272
100028.95402482465
100042.70504760374
100063.22501222548
100093.99173748092
100140.29696212155
100210.2038870868
100315.99955733484
100476.3839217282
100719.7265462074
101088.81128104973
101647.49467820989
102489.35955809284
103747.52625707077
105633.58702308855
108427.70610948716
112455.51156381961
118027.37376873134
125336.54404055949
134370.64105502612
144888.87348695387
156448.85241388713
168484.62654522128
100027.63399406074
100040.01825482542
100058.35483766063
100085.67626643211
100126.57670184149
100188.02416281204
100280.58278674431
100420.23457094403
100631.06400980649
100949.1201797253
101427.7556803469
102144.45931527163
103208.59731811652
104792.82248798323
107126.56756941137
110482.69297528788
115137.982555752
121295.45772156608
129002.0443275183
138110.36143357347
148301.19206963768
159130.00967587324
170091.02274641566
100026.93701112269
100038.1511006923
100054.59582026178
100078.9128072167
100115.08666524624
100169.13515824392
100250.13889430315
100371.764182924
100554.4852847974
100828.7503577709
101239.3126493437
101850.73077277592
102753.65135860861
104090.45077314434
106051.2100594326
108867.06905628978
112784.99503093645
118009.94304320146
124631.95070454004
132575.19035800136
141601.72046795307
151356.4519065534
161419.47684437688
171349.49812351383
100037.15721959928
100051.97381098216
100073.68742004338
100105.75098955017
100153.35833454448
100224.31415838916
100330.31115671567
100488.77697645451
100725.48625174376
101078.11000780214
101600.71360631005
102368.93998716582
103501.03287526937
105155.76796764793
107530.02242087011
110843.54418084922
115297.30952265399
121012.06277062939
127972.07949206098
136007.48240547723
144827.14136749934
154070.3941372331
163357.25021512448
172308.93310752613
100050.57061482932
100070.0342750406
100098.5375118973
100140.55982977196
100202.80831490635
100295.29095400982
100432.85992701168
100637.38003439757
100940.6587464029
101388.16145262125
102043.36309310047
103004.99559029791
104406.3956680855
106415.71604409249
109227.63239019501
113034.25638602683
117976.14734563386
124087.22283011736
131261.4548793009
139263.81182886247
147779.36286567565
156462.6689983542
164980.256434878
173014.80929918386
100068.07257538814
100093.48834665671
100130.67587568438
100185.39563168192
100266.21617961905
100385.8078814074
100562.75204968418
100823.97806743308
101207.85956471725
101767.89394472113
102586.87829622411
103777.19166401068
105482.65930261576
107874.8898658492
111133.71223535517
115409.81190691829
120775.47742121587
127183.24720737238
134456.22871175065
142320.23402349697
150458.50131187242
158554.48602523224
166323.93847603782
173502.1653564131
100090.77104584777
100123.75388173641
100171.96033734932
100242.72434236103
100346.86215250619
100500.18858515969
100725.55636937995
101055.45313653408
101535.13879222407
102234.28174550804
103247.86353214303
104698.9940551334
106738.20800807084
109530.95510276346
113230.29763122908
117935.55468194032
123649.44633464365
130253.88506766052
137521.74538728024
145161.6734552128
152870.25627479205
160368.5697198724
167417.8044179224
173806.2020190371
100120.02331348699
100162.55011773303
100224.61795985092
100315.45960954507
100448.54909227644
100643.3163076058
100927.339048431
101339.03029307068
101937.16827330654
102802.22802080528
104039.62362211692
105780.82524372013
108176.05945255817
111374.84842316297
115493.31046698052
120574.13000793822
126554.40074619037
133259.69017503527
140431.9068771039
147780.10405653119
155024.29481533015
161926.93893494044
168292.99994766348
173953.6404369668
100157.47354862856
100211.93770688518
100291.28354654035
100406.99220606477
100575.6043454418
100820.57799978297
101174.60024265083
101687.39377291761
102427.25275351573
103484.45523258043
104973.47474993145
107029.1863916912
109793.6750608553
113391.35649435173
117894.20272282007
123287.30174854476
129450.33119082726
136167.78266187204
143167.82669730007
150172.24216852486
156932.60594776692
163251.22722224984
168973.98676698306
173973.55457888893
100205.09171974867
100274.35582020361
100375.03183812808
100521.20384358414
100732.85445184057
101037.8495092298
101478.34037609443
102112.37533060508
103017.28070842609
104292.47266072241
106058.02220044284
108446.1773992453
111583.05607969098
115560.20265044789
120401.55101639048
126037.7011888736
132301.50375438287
138951.6274384894
145716.78544685472
152340.3117017218
158608.9445505995
164363.15530424545
169486.7026230572
173883.91152489066
100265.21021682085
100352.65692992453
100479.40107455073
100662.46614212784
100925.64094193254
101304.70119449362
101849.05367525868
102624.94680425362
103718.53983588744
105236.00437977108
107298.50514515181
110029.24808487477
113531.04668733505
117857.08468299883
122982.54761085108
128789.82050840135
135076.9411517652
141590.93542952358
148071.303318381
154288.99272323458
160067.66676392633
165283.62936380954
169852.6972020554
173711.81826509876
100340.56027817693
100450.13753865437
100608.41108215258
100835.68027818702
101162.33996615467
101630.4630901259
102296.80348745013
103235.89932121428
104541.16382392228
106322.27512610618
108696.38335475649
111771.16241771745
115620.0887341834
120254.85752603807
125604.33239918067
131511.17067821618
137750.62105181473
144069.47781726182
150227.5352447927
156026.48998285818
161324.69714684595
166032.41107331554
170094.18285022635
173473.30402096643
100434.30520211448
100570.56699579969
100766.61407693771
101048.2539206073
101451.289435152
102024.32402770736
102831.73631013613
103955.37549309529
105493.58359072372
107555.59014733622
110249.10643569655
113660.3259366512
117828.94279236159
122724.68906734404
128235.04252451731
134172.09672149626
140301.14154920581
146377.4947157095
152185.94481266968
157561.44479241973
162395.3772292222
166628.10933367594
170231.34154977952
173193.26273197704
100550.07720748457
100718.25005836015
100960.65977707919
101307.68439038488
101800.8713429362
102495.73113115283
103463.7032762214
104792.34053286101
106581.97901523918
108936.93976663679
111950.04347052264
115681.09867833111
120133.59560800961
125237.07535092541
130844.58580443848
136747.76471746413
142710.7497528262
148506.8373323996
153948.7224689698
158903.65284476496
163295.2184974866
167090.34326750666
170286.11453724952
172897.82980016517
100692.0441580628
100899.28597061633
101197.36852084777
101621.64748787801
102219.84617522908
103054.10102241334
104201.86214617906
105754.19150262502
107809.88023876816
110463.67215477389
113788.63269821234
117814.49656012165
122508.01931891902
127762.77215972533
133404.5968553093
139215.58592774312
144966.80699775432
150453.83362168737
155520.1587588288
160064.3726632852
164039.13333764314
167437.49482985854
170281.47159010326
172630.45898859447
100866.00267384553
101120.00785295731
101483.8320492343
101998.2659708458
102717.1063225316
103708.467332856
105054.21809945583
106846.22303024994
109177.78518205039
112129.55747377113
115750.57765224462
120038.67754940847
124925.25422491442
130273.08907734847
135890.09481318787
141556.36061119387
147057.95506248588
152216.652492025
156905.54480221702
161054.18001086958
164642.31518748577
167688.2532942639
170246.82209528668
172443.79825590958
101078.00073991637
101387.06777966165
101827.62757462068
102445.91540969237
103301.42486555559
104467.11188357789
106027.21234607231
108071.22406999096
110682.9174972663
113924.59887601847
117818.3602996911
122329.30285882937
127357.3588959625
132741.00140521844
138277.93150186422
143754.53499323697
148976.85145167282
153794.53068242324
158110.29762563977
161882.86298513834
165117.53971319358
167859.40757756698
170211.57040597548
101334.44430046699
101707.61183110905
102236.64682719548
102972.99356874339
103981.07893825542
105337.16295156916
107125.32185132729
109429.16494211864
112319.04375631108
115835.35834921837
119971.51091719807
124661.39672688833
129777.1117220648
135140.71594724918
140547.48130526737
145796.24916226676
150716.60207415643
155186.35766838584
159138.25375690594
162556.9880912829
165471.14951250938
167958.23636923687
101642.22797553748
102089.15462255337
102718.91206495097
103587.64091109241
104763.51309597724
106324.15597415189
108350.55041326232
110916.91837935905
114076.49686824027
117845.18044239434
122187.2388437589
127007.84607080597
132157.1677780639
137448.0277357296
142679.6292842772
147668.7432588457
152270.44691876016
156390.96795191136
159989.10937538403
163072.51238765244
165688.59410216214
102008.62693349454
102539.38890778666
103282.32847470857
104297.38771685929
105654.96644506231
107431.63102177647
109702.19890124016
112527.96636700431
115941.84695960673
119933.95744365363
124440.17731924859
129340.86510003654
134470.68780830808
139639.10348364874
144655.94178556243
149359.23589149365
153629.55277279008
157399.58817260838
160649.38586892982
163394.98902490892
102441.14149655896
103065.98014004293
103934.37836986988
105108.81882724888
106660.01555485738
108660.77486847107
111176.51226159217
114252.44523714957
117898.84690654212
122079.24370100067
126703.8714771308
131632.65237494902
136690.79090266622
141690.52082401075
146457.5605040902
150851.49130681425
154778.2498770576
158188.52320444747
161065.05684630742
102947.26705143761
103676.30228542112
104681.79267949857
106027.20019619795
107781.17945376491
110009.96377048937
112766.38514627912
116076.59154657758
119927.34796474423
124256.00727388357
128949.64673201538
133853.91202351087
138789.76590478685
143577.94745841553
148061.88880364984
152122.22834414904
155681.66102986204
158687.07722839425
103534.27262810124
104377.10855209462
105530.21039217502
107055.98978619432
109018.5492274019
111474.49059120755
114461.0233982747
117983.42097950715
122003.80002613664
126435.44281434994
131147.03543838416
135973.523787218
140737.70726395337
145272.1611771151
149437.26143212905
153126.81273361234
156253.54496000076
104208.8960237342
105174.19075434157
106483.69530178721
108196.4471631499
110369.13699886284
113045.93341262902
116245.91609366589
119951.77297058565
124101.51854402812
128587.40306309515
133262.39743855406
137957.11930033565
142499.377612533
146733.51394565645
150528.27406758946
153762.32896224744
104976.97605256815
106071.99492820044
107544.37164048859
109447.22706333491
111827.00860956876
114712.34428301651
118102.32812496902
121956.38819205477
126189.78208540066
130676.00589739329
135257.49284904732
139763.77518827672
144027.96308907465
147897.0445988553
151218.72456467288
105843.09379731506
107073.14213879836
108711.95534003159
110803.79143999935
113381.98801200926
116457.18129982163
120007.02141800986
123967.3773265922
128232.82630414257
132661.2924860878
137087.87034566968
141340.08854283195
145249.10231132162
148633.33705431115
106810.14276367251
108177.99640114285
109982.98550131764
112257.73136113564
115019.60077460391
118259.15284103256
121931.17702351244
125949.21773848073
130188.80184569105
134494.23859246407
138693.2341917257
142604.2587526825
146021.93085425408
107878.77745224036
109384.05638109724
111350.78318303735
113796.79554966843
116720.6338251904
120091.27497534356
123840.05653108846
127859.17136120009
132005.60222341915
136110.57011169856
139984.73436375003
143404.22819989256
109047.00754512029
110685.40917885317
112804.10974549595
115403.02850718627
118459.79033056305
121919.87893915137
125691.02113985945
129643.77061240346
133615.60030393512
137414.8655777593
140802.6971976008
110309.41571122651
112072.07204278353
114326.9076838726
117053.07947918658
120204.81063403441
123702.66310898018
127429.73770492172
131232.5826986527
134919.40316679745
138241.70098000093
111656.60927587852
113529.04659443222
115897.07485098435
118716.03156702967
121914.327270932
125385.28226035245
128984.18154904812
132522.54079121296
135745.84926698497
113074.21389508115
115035.34597013604
117485.13682069855
120351.63386529172
123534.29143861718
126895.25642067006
130249.71128595543
133340.95379799616
114541.85582765807
116562.58198945505
119051.93451939468
121907.17455440281
124992.69855284787
128127.3916995852
131053.07445997305
116031.90102535617
118072.92314050738
120546.27473239116
123311.29490066982
126185.46414917432
128909.90678098945
117507.26078043773
119515.90395131623
121897.7282818513
124461.02161149976
126942.94398895955
118918.23156687996
120822.82766135635
123005.70028983976
125191.47793164686
120197.05024251672
121895.03927188677
123709.1275797098
121246.31988909043
122575.30497584182
121911.8708701162
SCALARS T float 1
LOOKUP_TABLE default
300.1201085911968
300.11979328302783
300.16987784179213
300.11772887811065
300.16972550745305
300.2430059053891
300.11419788646094
300.1668312065121
300.24314060852066
300.3509302466044
300.10946869254855
300.16170564670387
300.2388826349363
300.3515300153822
300.511081474607
300.10381176978433
300.1548052998702
300.2311265674075
300.34496468427693
300.51239712059913
300.7504328930321
300.0974937132124
300.14656590904593
300.22066995686083
300.33280889377335
300.5018029273527
300.7527358127263
301.1116192507639
300.09076551028784
300.1374000499748
300.20825210894554
300.31648530717615
300.4821478331666
300.7348318411555
301.1148325590979
301.6641028057463
300.08385198125137
300.1276842600356
300.19454655515705
300.29728403213323
300.4560313587434
300.7020936188705
301.0830120054566
301.6662357367388
302.5264033675033
300.07694509839143
300.11774738810584
300.18014402579536
300.276335316635
300.4257474133909
300.65940114323496
301.02682829095403
301.60637276719336
302.5174715142787
303.91556000202087
300.070201410703
300.1078640023228
300.1655403469679
300.2545851134747
300.39321309875766
300.6108773684661
300.9556619394489
301.50692986847906
302.3974756417537
303.8543364409285
306.2735191552007
300.0637427499421
300.09825330244894
300.15113406078393
300.2327904604252
300.35994906200773
300.55976968956446
300.87692920750885
301.3861925973226
302.21591976903346
303.5972773135368
305.99522792471134
310.63842062027805
300.0576593082994
300.08908234952975
300.13723115770915
300.2115282412448
300.3270995225552
300.5084853626696
300.7960352322188
301.2572768968491
302.00813149885323
303.25643111097577
305.41037118161086
309.46546551190863
319.8466051248382
300.052013938268
300.08047194110736
300.1240552298179
300.1912180768348
300.2954843221819
300.4587088807686
300.7166553873559
301.1287846942586
301.7961076550015
302.8959494767662
304.7591743893584
308.08832767554685
314.8464099921711
327.85580888203083
300.0468470063503
300.07250384058665
300.1117601861982
300.17214760305154
300.2656550034603
300.4115472551447
300.6411279975396
301.00594615022123
301.5923335143866
302.5481972805421
304.13621669572615
306.85445884128444
311.7528473535291
320.59374279521137
333.87767605051437
300.0421812963582
300.06522824385314
300.10044335811847
300.1544986709805
300.2379551235772
300.3676718336852
300.5708185505976
300.8916610450868
301.40322674842764
302.2277590864052
303.57367762505527
305.805313141833
309.5723088625839
315.9759786867355
325.8680014823512
338.62438473632693
300.03802655431315
300.0586711730521
300.0901580198636
300.13837205164106
300.2125721818075
300.32743545868897
300.5064137827551
300.78730160511947
301.2315499903721
301.9399252443683
303.0787782216326
304.9230772353071
307.9176761696325
312.79824986748224
320.30228899075007
330.50105328117553
342.45116882684613
300.0343836197901
300.05284094000757
300.0809248033012
300.12380788961724
300.18957902387814
300.2909695141078
300.4481496541518
300.69328250766944
301.0779621547125
301.68529458379595
302.64904780579815
304.1820687020924
306.60992440975406
310.45888179045005
316.3133905605621
324.45184941142156
334.5137397001748
345.5664314126679
300.0312481606128
300.04773402823776