# vtk DataFile Version 2.0
JuliaCFD
ASCII
DATASET UNSTRUCTURED_GRID

POINTS 1900 float
0.0 0.0 0.005
0.0 0.0416667 0.005
0.0 0.0833333 0.005
0.0 0.125 0.005
0.0 0.166667 0.005
0.0 0.208333 0.005
0.0 0.25 0.005
0.0 0.291667 0.005
0.0 0.333333 0.005
0.0 0.375 0.005
0.0 0.416667 0.005
0.0 0.458333 0.005
0.0 0.5 0.005
0.0 0.541667 0.005
0.0 0.583333 0.005
0.0 0.625 0.005
0.0 0.666667 0.005
0.0 0.708333 0.005
0.0 0.75 0.005
0.0 0.791667 0.005
0.0 0.833333 0.005
0.0 0.875 0.005
0.0 0.916667 0.005
0.0 0.958333 0.005
0.0 1.0 0.005
0.0409575 0.0 0.005
0.0409401 0.0416667 0.005
0.0409227 0.0833333 0.005
0.0409054 0.125 0.005
0.040888 0.166667 0.005
0.0408706 0.208333 0.005
0.0408532 0.25 0.005
0.0408359 0.291667 0.005
0.0408185 0.333333 0.005
0.0408011 0.375 0.005
0.0407838 0.416667 0.005
0.0407664 0.458333 0.005
0.040749 0.5 0.005
0.0407316 0.541667 0.005
0.0407143 0.583333 0.005
0.0406969 0.625 0.005
0.0406795 0.666667 0.005
0.0406621 0.708333 0.005
0.0406448 0.75 0.005
0.0406274 0.791667 0.005
0.04061 0.833333 0.005
0.0405927 0.875 0.005
0.0405753 0.916667 0.005
0.0405579 0.958333 0.005
0.0405405 1.0 0.005
0.0819149 0.0 0.005
0.0818802 0.0416667 0.005
0.0818455 0.0833333 0.005
0.0818107 0.125 0.005
0.081776 0.166667 0.005
0.0817412 0.208333 0.005
0.0817065 0.25 0.005
0.0816717 0.291667 0.005
0.081637 0.333333 0.005
0.0816022 0.375 0.005
0.0815675 0.416667 0.005
0.0815328 0.458333 0.005
0.081498 0.5 0.005
0.0814633 0.541667 0.005
0.0814285 0.583333 0.005
0.0813938 0.625 0.005
0.081359 0.666667 0.005
0.0813243 0.708333 0.005
0.0812895 0.75 0.005
0.0812548 0.791667 0.005
0.0812201 0.833333 0.005
0.0811853 0.875 0.005
0.0811506 0.916667 0.005
0.0811158 0.958333 0.005
0.0810811 1.0 0.005
0.122872 0.0 0.005
0.12282 0.0416667 0.005
0.122768 0.0833333 0.005
0.122716 0.125 0.005
0.122664 0.166667 0.005
0.122612 0.208333 0.005
0.12256 0.25 0.005
0.122508 0.291667 0.005
0.122455 0.333333 0.005
0.122403 0.375 0.005
0.122351 0.416667 0.005
0.122299 0.458333 0.005
0.122247 0.5 0.005
0.122195 0.541667 0.005
0.122143 0.583333 0.005
0.122091 0.625 0.005
0.122039 0.666667 0.005
0.121986 0.708333 0.005
0.121934 0.75 0.005
0.121882 0.791667 0.005
0.12183 0.833333 0.005
0.121778 0.875 0.005
0.121726 0.916667 0.005
0.121674 0.958333 0.005
0.121622 1.0 0.005
0.16383 0.0 0.005
0.16376 0.0416667 0.005
0.163691 0.0833333 0.005
0.163621 0.125 0.005
0.163552 0.166667 0.005
0.163482 0.208333 0.005
0.163413 0.25 0.005
0.163343 0.291667 0.005
0.163274 0.333333 0.005
0.163204 0.375 0.005
0.163135 0.416667 0.005
0.163066 0.458333 0.005
0.162996 0.5 0.005
0.162927 0.541667 0.005
0.162857 0.583333 0.005
0.162788 0.625 0.005
0.162718 0.666667 0.005
0.162649 0.708333 0.005
0.162579 0.75 0.005
0.16251 0.791667 0.005
0.16244 0.833333 0.005
0.162371 0.875 0.005
0.162301 0.916667 0.005
0.162232 0.958333 0.005
0.162162 1.0 0.005
0.204787 0.0 0.005
0.2047 0.0416667 0.005
0.204614 0.0833333 0.005
0.204527 0.125 0.005
0.20444 0.166667 0.005
0.204353 0.208333 0.005
0.204266 0.25 0.005
0.204179 0.291667 0.005
0.204092 0.333333 0.005
0.204006 0.375 0.005
0.203919 0.416667 0.005
0.203832 0.458333 0.005
0.203745 0.5 0.005
0.203658 0.541667 0.005
0.203571 0.583333 0.005
0.203484 0.625 0.005
0.203398 0.666667 0.005
0.203311 0.708333 0.005
0.203224 0.75 0.005
0.203137 0.791667 0.005
0.20305 0.833333 0.005
0.202963 0.875 0.005
0.202876 0.916667 0.005
0.20279 0.958333 0.005
0.202703 1.0 0.005
0.245745 0.0 0.005
0.245641 0.0416667 0.005
0.245536 0.0833333 0.005
0.245432 0.125 0.005
0.245328 0.166667 0.005
0.245224 0.208333 0.005
0.245119 0.25 0.005
0.245015 0.291667 0.005
0.244911 0.333333 0.005
0.244807 0.375 0.005
0.244703 0.416667 0.005
0.244598 0.458333 0.005
0.244494 0.5 0.005
0.24439 0.541667 0.005
0.244286 0.583333 0.005
0.244181 0.625 0.005
0.244077 0.666667 0.005
0.243973 0.708333 0.005
0.243869 0.75 0.005
0.243764 0.791667 0.005
0.24366 0.833333 0.005
0.243556 0.875 0.005
0.243452 0.916667 0.005
0.243347 0.958333 0.005
0.243243 1.0 0.005
0.286702 0.0 0.005
0.286581 0.0416667 0.005
0.286459 0.0833333 0.005
0.286337 0.125 0.005
0.286216 0.166667 0.005
0.286094 0.208333 0.005
0.285973 0.25 0.005
0.285851 0.291667 0.005
0.285729 0.333333 0.005
0.285608 0.375 0.005
0.285486 0.416667 0.005
0.285365 0.458333 0.005
0.285243 0.5 0.005
0.285121 0.541667 0.005
0.285 0.583333 0.005
0.284878 0.625 0.005
0.284757 0.666667 0.005
0.284635 0.708333 0.005
0.284513 0.75 0.005
0.284392 0.791667 0.005
0.28427 0.833333 0.005
0.284149 0.875 0.005
0.284027 0.916667 0.005
0.283905 0.958333 0.005
0.283784 1.0 0.005
0.32766 0.0 0.005
0.327521 0.0416667 0.005
0.327382 0.0833333 0.005
0.327243 0.125 0.005
0.327104 0.166667 0.005
0.326965 0.208333 0.005
0.326826 0.25 0.005
0.326687 0.291667 0.005
0.326548 0.333333 0.005
0.326409 0.375 0.005
0.32627 0.416667 0.005
0.326131 0.458333 0.005
0.325992 0.5 0.005
0.325853 0.541667 0.005
0.325714 0.583333 0.005
0.325575 0.625 0.005
0.325436 0.666667 0.005
0.325297 0.708333 0.005
0.325158 0.75 0.005
0.325019 0.791667 0.005
0.32488 0.833333 0.005
0.324741 0.875 0.005
0.324602 0.916667 0.005
0.324463 0.958333 0.005
0.324324 1.0 0.005
0.368617 0.0 0.005
0.368461 0.0416667 0.005
0.368305 0.0833333 0.005
0.368148 0.125 0.005
0.367992 0.166667 0.005
0.367835 0.208333 0.005
0.367679 0.25 0.005
0.367523 0.291667 0.005
0.367366 0.333333 0.005
0.36721 0.375 0.005
0.367054 0.416667 0.005
0.366897 0.458333 0.005
0.366741 0.5 0.005
0.366585 0.541667 0.005
0.366428 0.583333 0.005
0.366272 0.625 0.005
0.366116 0.666667 0.005
0.365959 0.708333 0.005
0.365803 0.75 0.005
0.365647 0.791667 0.005
0.36549 0.833333 0.005
0.365334 0.875 0.005
0.365178 0.916667 0.005
0.365021 0.958333 0.005
0.364865 1.0 0.005
0.409575 0.0 0.005
0.409401 0.0416667 0.005
0.409227 0.0833333 0.005
0.409054 0.125 0.005
0.40888 0.166667 0.005
0.408706 0.208333 0.005
0.408532 0.25 0.005
0.408359 0.291667 0.005
0.408185 0.333333 0.005
0.408011 0.375 0.005
0.407838 0.416667 0.005
0.407664 0.458333 0.005
0.40749 0.5 0.005
0.407316 0.541667 0.005
0.407143 0.583333 0.005
0.406969 0.625 0.005
0.406795 0.666667 0.005
0.406621 0.708333 0.005
0.406448 0.75 0.005
0.406274 0.791667 0.005
0.4061 0.833333 0.005
0.405927 0.875 0.005
0.405753 0.916667 0.005
0.405579 0.958333 0.005
0.405405 1.0 0.005
0.450532 0.0 0.005
0.450341 0.0416667 0.005
0.45015 0.0833333 0.005
0.449959 0.125 0.005
0.449768 0.166667 0.005
0.449577 0.208333 0.005
0.449386 0.25 0.005
0.449195 0.291667 0.005
0.449003 0.333333 0.005
0.448812 0.375 0.005
0.448621 0.416667 0.005
0.44843 0.458333 0.005
0.448239 0.5 0.005
0.448048 0.541667 0.005
0.447857 0.583333 0.005
0.447666 0.625 0.005
0.447475 0.666667 0.005
0.447284 0.708333 0.005
0.447093 0.75 0.005
0.446901 0.791667 0.005
0.44671 0.833333 0.005
0.446519 0.875 0.005
0.446328 0.916667 0.005
0.446137 0.958333 0.005
0.445946 1.0 0.005
0.49149 0.0 0.005
0.491281 0.0416667 0.005
0.491073 0.0833333 0.005
0.490864 0.125 0.005
0.490656 0.166667 0.005
0.490447 0.208333 0.005
0.490239 0.25 0.005
0.49003 0.291667 0.005
0.489822 0.333333 0.005
0.489613 0.375 0.005
0.489405 0.416667 0.005
0.489197 0.458333 0.005
0.488988 0.5 0.005
0.48878 0.541667 0.005
0.488571 0.583333 0.005
0.488363 0.625 0.005
0.488154 0.666667 0.005
0.487946 0.708333 0.005
0.487737 0.75 0.005
0.487529 0.791667 0.005
0.48732 0.833333 0.005
0.487112 0.875 0.005
0.486903 0.916667 0.005
0.486695 0.958333 0.005
0.486486 1.0 0.005
0.531954 0.00563435 0.005
0.531749 0.0470663 0.005
0.531544 0.0884982 0.005
0.531338 0.12993 0.005
0.531133 0.171362 0.005
0.530928 0.212794 0.005
0.530722 0.254226 0.005
0.530517 0.295658 0.005
0.530312 0.33709 0.005
0.530107 0.378521 0.005
0.529901 0.419953 0.005
0.529696 0.461385 0.005
0.529491 0.502817 0.005
0.529285 0.544249 0.005
0.52908 0.585681 0.005
0.528875 0.627113 0.005
0.528669 0.668545 0.005
0.528464 0.709977 0.005
0.528259 0.751409 0.005
0.528054 0.79284 0.005
0.527848 0.834272 0.005
0.527643 0.875704 0.005
0.527438 0.917136 0.005
0.527232 0.958568 0.005
0.527027 1.0 0.005
0.572289 0.0127465 0.005
0.572093 0.0538821 0.005
0.571896 0.0950177 0.005
0.571699 0.136153 0.005
0.571502 0.177289 0.005
0.571306 0.218424 0.005
0.571109 0.25956 0.005
0.570912 0.300695 0.005
0.570715 0.341831 0.005
0.570519 0.382967 0.005
0.570322 0.424102 0.005
0.570125 0.465238 0.005
0.569928 0.506373 0.005
0.569732 0.547509 0.005
0.569535 0.588644 0.005
0.569338 0.62978 0.005
0.569142 0.670916 0.005
0.568945 0.712051 0.005
0.568748 0.753187 0.005
0.568551 0.794322 0.005
0.568355 0.835458 0.005
0.568158 0.876593 0.005
0.567961 0.917729 0.005
0.567764 0.958864 0.005
0.567568 1.0 0.005
0.612625 0.0198587 0.005
0.612436 0.0606979 0.005
0.612248 0.101537 0.005
0.61206 0.142376 0.005
0.611872 0.183216 0.005
0.611684 0.224055 0.005
0.611496 0.264894 0.005
0.611307 0.305733 0.005
0.611119 0.346572 0.005
0.610931 0.387412 0.005
0.610743 0.428251 0.005
0.610555 0.46909 0.005
0.610366 0.509929 0.005
0.610178 0.550769 0.005
0.60999 0.591608 0.005
0.609802 0.632447 0.005
0.609614 0.673286 0.005
0.609425 0.714125 0.005
0.609237 0.754965 0.005
0.609049 0.795804 0.005
0.608861 0.836643 0.005
0.608673 0.877482 0.005
0.608484 0.918322 0.005
0.608296 0.959161 0.005
0.608108 1.0 0.005
0.65296 0.0269708 0.005
0.65278 0.0675137 0.005
0.652601 0.108057 0.005
0.652421 0.148599 0.005
0.652241 0.189142 0.005
0.652062 0.229685 0.005
0.651882 0.270228 0.005
0.651702 0.310771 0.005
0.651523 0.351314 0.005
0.651343 0.391857 0.005
0.651164 0.4324 0.005
0.650984 0.472943 0.005
0.650804 0.513485 0.005
0.650625 0.554028 0.005
0.650445 0.594571 0.005
0.650265 0.635114 0.005
0.650086 0.675657 0.005
0.649906 0.7162 0.005
0.649726 0.756743 0.005
0.649547 0.797286 0.005
0.649367 0.837828 0.005
0.649188 0.878371 0.005
0.649008 0.918914 0.005
0.648828 0.959457 0.005
0.648649 1.0 0.005
0.693295 0.034083 0.005
0.693124 0.0743295 0.005
0.692953 0.114576 0.005
0.692782 0.154823 0.005
0.692611 0.195069 0.005
0.69244 0.235316 0.005
0.692269 0.275562 0.005
0.692098 0.315809 0.005
0.691926 0.356055 0.005
0.691755 0.396302 0.005
0.691584 0.436548 0.005
[...]
CELL_DATA 888
SCALARS P float 1
LOOKUP_TABLE default
100125.51239063352
100125.17851729365
100177.61311016891
100122.89916359073
100177.48476154667
100254.57157626386
100118.99075861814
100174.31065177503
100254.81600078996
100368.44806852697
100113.75382093982
100168.66174463589
100250.18694712537
100369.3297501311
100537.37797255159
100107.49124448509
100161.04723644555
100241.68274556944
100362.27590473549
100539.32543761686
100788.97146513792
100100.50160330604
100151.95288012494
100230.18958960686
100349.03899097908
100528.11790448168
100792.6219466075
101166.12664199926
100093.06591718394
100141.83869659879
100216.52771226924
100331.19203415768
100506.91187373291
100774.03708449598
101172.14914986848
101737.80009119303
100085.43568993245
100131.12468890553
100201.44463687507
100310.15841443515
100478.56336203222
100739.13010593982
101139.79824654011
101745.68249905905
102621.5171507484
100077.8252953811
100120.17769387476
100185.59678157374
100287.18605104563
100445.5865565695
100693.22079503952
101080.71780695867
101685.97105402387
102623.96480211898
104037.75397032298
100070.4089909892
100109.30379143739
100169.53584808586
100263.32184761406
100410.08587174224
100640.79449935026
101005.04659195799
101582.9031849183
102505.65781776985
103996.92975030323
106464.4800448704
100063.32165530551
100098.74685813735
100153.70567418206
100239.40618426722
100373.73720465171
100585.39425782207
100920.79223657228
101456.0881034999
102319.7721781233
103742.75941999542
106208.80369617826
111153.7411893913
100056.66223166329
100088.69199543828
100138.44694879434
100216.08146918524
100337.80862648344
100529.66331107034
100833.81945137665
101319.598169229
102104.00812525133
103395.72295035936
105616.31098343639
109893.23437731212
122178.70295652881
100050.4985853897
100079.27200169713
100124.00806080106
100193.81615843179
100303.21466147827
100475.4685646591
100748.1562303565
101182.73424690685
101881.88273882044
103024.29007191052
104948.8141364435
108426.18457461323
115938.57689546929
132377.53147338764
100044.87301524087
100070.57543817788
100110.55895905086
100172.93169216019
100270.57507478185
100424.0521836543
100666.40540689301
101051.2416951463
101666.90134401283
102663.0286333125
104307.11680497929
107130.97641005757
112391.47437124961
122686.99573011404
140337.31861382464
100039.8078409947
100062.65503283327
100098.20562894516
100153.63085978452
100240.27901256253
100376.18026388175
100590.12352955765
100928.39623802529
101466.19912466616
102327.80188465933
103724.9307988599
106038.8816087111
110010.85751717334
117103.6574565532
129123.90428464593
146760.64041964343
100035.31059669238
100055.53604543641
100087.0040606583
100136.024853742
100212.54082207434
100332.26656780865
100520.12766371298
100815.83623588076
101283.05181232828
102024.7587788335
103210.0211220672
105122.89984749883
108251.86347675289
113498.80281196655
122084.7340010989
134961.80392796497
152022.65151851645
100031.3787584712
100049.22362370914
100076.97308568141
100120.15594248509
100187.44511640575
100292.47631064367
100456.73518534406
100714.15507074633
101118.47879570842
101755.11777455878
102760.36521122501
104352.55324442952
106879.41746617622
110947.59367820989
117388.71120701724
127009.02158463486
140151.54190322614
156352.59832221383
100028.00401655442
100043.7095110683
100068.10535893707
100106.01814788215
100164.98704293265
100256.8036494879
100399.93120822957
100623.2929903444
100972.21426215526
101517.66315950423
102370.4795309891
103702.45942150222
105774.45556888392
109023.84257527064
114043.51855369471
121461.9613814997
131701.1696373089
144716.27566821448
159908.76832711606
100025.17603602899
100038.97797209484
100060.37673506449
100093.57288468163
100145.10097894238
100225.13205975325
100349.49602507475
100542.81128819735
100843.29554904268
101310.0619344651
102033.91637639924
103152.40124240785
104868.21486020584
107512.73265457313
111529.90196078284
117411.30180066398
125552.1126078478
136070.97085528882
148698.94934456985
162810.50566664545
100022.88615388861
100035.01107731702
100053.7548118266
100082.76317127567
100127.68605742545
100197.27805897627
100305.0906914738
100472.06159820431
100730.42653952111
101129.54730374599
101744.27176219126
102686.14868487646
104116.46899860555
106294.94660842534
109567.35227656302
114327.84499163939
120927.73043885932
129542.34051016979
140076.8856048307
152147.1435023289
165152.71730600868
100021.13149603338
100031.7939740265
100048.20605172712
100073.52406124015
100112.62261775228
100173.02442419558
100266.31737661539
100410.29962327701
100632.18356100007
100973.28183642427
101495.61044094755
102290.51232213786
103488.48354967916
105297.6021573705
107994.84413545595
111903.95282287711
117335.83467627002
124487.62843920717
133354.15973127072
143704.38345836592
155107.9562631339
167014.23086121643
100019.92040204162
100029.32115190917
100043.70335865546
100065.79355715557
100099.7891736807
100152.14458386698
100232.76017580232
100356.76290633438
100547.14118344679
100838.55069764113
101282.59785855477
101954.63475811595
102961.49081427066
104472.3534232213
106713.27340407272
109954.60876221274
114472.51890493807
120472.39956838527
128006.94614050753
136937.32947456482
146954.67959822214
157626.67251298315
168462.60419521068
100019.28148877175
100027.60533186821
100040.23540791009
100059.52249084922
100089.07440514257
100134.42149620465
100204.01513530283
100310.71187980271
100473.94889837717
100722.85634557126
101100.53368599695
101669.50689625047
102517.98438819914
103784.96143939272
105657.04616844546
108362.42920428759
112146.51190196347
117215.2294350507
123662.90500796693
131421.1002462051
140261.32695992588
149839.1085829427
159746.55383772645
169557.03344618645
100026.69280433332
100037.82023881275
100054.68812818837
100080.39205115863
100119.66394176449
100179.71273254984
100271.46509338707
100411.36841756525
100623.95196186281
100945.32261975133
101427.61623622397
102144.14259880301
103209.87778488809
104780.10552385925
107048.4556506529
110232.37944054398
114532.60769852571
120072.68602959665
126842.99176460324
134682.30086848215
143309.4232087031
152374.2481539465
161508.38015905992
170347.098446442
100036.52890808474
100051.31384579153
100073.69839910767
100107.72497316904
100159.53727367919
100238.41947248233
100358.29811109502
100539.86225110105
100813.44165238668
101222.67369190481
101828.8080843915
102727.44098232288
104048.4548649467
105956.57712502843
108643.64277255081
112300.49523206173
117069.08157816445
122988.0085078696
129958.93845032065
137756.34368159517
146075.34912601675
154580.7429188042
162949.94207868027
170879.1429731885
100049.50360534475
100069.02091933478
100098.5258284418
100143.24682142647
100211.06932086287
100313.79046028315
100468.88257351235
100701.88035278178
101049.4281113951
101562.90753540081
102322.12214219729
103436.07616153077
105045.08584316689
107317.53536824578
110431.16853941986
114536.78849255462
119709.90670928574
125909.55981101531
132967.79721616977
140620.37523505115
148560.37960236028
156480.86442301815
164107.7994887468
171189.43841121168
100066.50611567778
100092.09441267257
100130.7064204857
100189.03224702296
100277.06530067798
100409.57535690092
100608.10003694406
100903.49321023925
101339.00767543464
101981.46657478792
102922.58563754128
104281.95283324509
106206.63095694284
108859.35941650801
112392.22755684223
116906.35548569798
122409.58734275382
128791.93147694353
135836.05886278115
143260.60279207755
150771.53278776575
158098.6271751857
165012.83562322144
171314.58236704837
100088.63172233154
100121.93819206618
100172.08658976224
100247.53550050138
100360.77529199887
100529.99703016278
100781.23687869887
101151.00724540341
101695.39223752117
102491.72864839096
103641.94944441157
105273.91799998148
107534.68791683041
110571.92209203968
114502.22873095343
119371.96257786217
125125.17731575156
131596.8127047872
138539.00238954226
145670.4872187228
152719.8997682853
159457.63984234075
165697.87557208235
171283.23039908014
100117.21279127129
100160.23990163086
100224.85414734801
100321.61228564352
100465.88946206294
100679.69089612347
100993.90738477625
101455.71634782924
102130.4149325501
103104.88215583138
104489.93087556516
106416.95232776336
109025.47059185719
112439.24785864665
116732.4885620621
121895.89333593326
127817.7298440317
134292.7437447022
141059.3529810796
147848.43695192158
154419.22213715792
160581.38139558272
166189.4007208947
171126.63007430462
100153.85051745626
100209.00071342337
100291.5629491358
100414.52672589644
100596.50738820332
100863.67655171193
101255.78560983567
101828.0347189294
102654.46202127745
103830.83484243284
105473.54813991812
107711.76268336884
110669.98769381168
114440.6570125285
119051.86506148861
124441.69876079669
130452.92065433171
136854.89958981148
143386.25227267214
149798.57662228576
155885.30437047378
161493.82967359092
166515.80516115503
170865.6886082501
100200.44430367944
100270.56250903223
100375.14936795359
100529.94433805991
100757.14057547209
101090.25728712493
101576.00360130542
102277.47066047932
103277.23021916127
104677.68376433136
106596.53477193156
109154.61287592952
112454.4300676284
116551.87195746659
121428.27871058388
126975.20481986318
133001.52460256233
139264.98900049887
145514.3353386821
151527.771365388
157134.9530268288
162218.52307806435
166701.65428815788
170530.9848734824
100259.22049271152
100347.63126876883
100478.94370456159
100671.95880105886
100954.952306814
101367.45269979339
101963.20081235861
102813.24578823699
104007.21182251675
105651.07152208008
107859.00901732096
110737.38017019325
114360.98981718878
118746.23307356924
123830.0589527965
129465.66403002481
135439.6206488333
141509.08547876985
147442.20767970957
153046.8612012545
158186.94670452588
162778.40313859703
166772.82995017729
170143.03901461154
100332.75821682661
100443.29881777341
100606.7089740435
100846.81091519583
101197.0163336392
101703.06831323773
102425.98353058274
103443.8611987636
104851.20245087419
106753.8374804993
109257.32882878836
112447.96031638328
116368.65376241894
120995.89937886702
126227.00176500533
131885.56870419777
137748.25847210683
143580.0742840297
149173.0642440431
154367.5845840182
159059.97916657524
163195.89249701833
166754.06648892674
169732.12336685826
100424.01874966874
100561.0939282906
100763.96583174482
101060.77564807137
101490.37117479702
102105.04594379141
102972.5768215067
104176.6229115008
105813.82580507983
107985.70894871377
110784.11361275247
114270.66842338999
118454.1599669973
123272.88791253077
128591.15406814503
134212.6510960578
139912.52761967937
145472.8549637442
150712.39409761498
155503.304972583
159773.57539206513
163495.3163613769
166672.84076542352
169331.06793942064
100536.40154594883
100706.01563985892
100956.34815515227
101320.2228173532
101842.30716095086
102581.19708322905
103610.46614526346
105017.30509893497
106897.21537919549
109343.07758775887
112428.49162860535
116187.00458010276
120592.80432514005
125550.02047210788
130896.7893249507
136427.33305097366
141923.05555220298
147187.12843775595
152068.3002874671
156469.50099067378
160347.4715127009
163700.6863985859
166558.7203830583
168990.47330482295
100674.61859553572
100883.23663752059
101189.6733068229
101631.83964540384
102260.14104481514
103138.88898304131
104345.99882230393
105969.70341582334
108100.73191958017
110819.1529136114
114176.38334909946
118176.21689394585
122759.55918249468
127801.2422978262
133122.05678556094
138513.90074945142
143772.22401663556
148725.15185100038
153250.56216864695
157281.75526872792
160802.6423516743
163837.35875420322
166448.35257861865
168768.99175886356
100843.57420089233
101098.1594680428
101470.11311930863
102002.45343332241
102750.99096079411
103784.725640965
105184.04356545277
107035.32557291641
109420.82229322035
112403.89153227943
116011.09418506845
120215.71522773868
124929.05423690051
130002.73883525151
135247.48540346173
140460.79412899486
145456.9151199589
150090.91352452032
154269.8172095599
157955.78354806703
161158.61482457415
163929.34219399278
166376.8453231131
101048.43804270732
101356.55059410265
101804.0401717666
102438.82991339719
103321.4531609183
104524.21289697621
106127.6794220687
108213.18167236152
110850.95810644467
114084.41396665275
117913.67114981209
122282.95403018712
127077.29868983616
132132.55167372493
137256.7033276215
142258.76093586016
146975.2165496441
151288.82199429005
155136.0138285721
158505.0394064803
161429.04362260678
163989.76073853383
101294.74066406
101664.4273693315
102197.8665883661
102947.4325445401
103977.32415488521
105361.40924075663
107177.80134931147
109499.62269509208
112381.76214657177
115845.3185462286
119863.58789839335
124354.02289637296
129180.88063933684
134170.95618773473
139135.4978634494
143900.25413450907
148326.18522227035
152324.0639880717
155855.91452798457
158932.93618310953
161605.47883799617
101588.27556164359
102027.8933672981
102657.83398564321
103534.13348162155
104723.30654304622
106298.62438024269
108332.99985932797
110888.17897371913
114000.80855261862
117668.561553443
121838.5734529285
126405.11383286346
131217.64047502613
136099.3215838613
140871.08101594844
145378.55877111954
149507.74292281925
153195.1517284335
156423.7310453749
159211.50086985636
101934.96519072384
102452.96691889458
103189.7660020974
104203.94915129482
105562.65830037216
107336.17607176822
109589.34230107706
112369.72471245662
115693.65204036696
119534.61448510161
123816.12163980112
128413.22885227475
133166.16338043622
137900.21561322242
142450.9532784358
146684.56216045003
150511.80133180594
153886.36631795918
156792.33953594393
102340.67037913356
102945.36725703298
103798.80906920653
104960.76113874385
106496.9109501427
108472.0782475758
110940.22526083121
113932.0676629176
117442.88284081756
121422.32429600468
125772.44936094098
130354.78171663589
135005.0776934929
139556.1717290202
143859.89428395286
147803.00698041165
151311.7918135616
154334.47244206525
102811.01355793935
103510.25891098673
104489.18008425494
105806.95152531133
107525.63270638119
109701.90639240431
112376.17217291445
115560.72499534836
119228.70908010013
123307.81283154791
127682.97976202867
132205.32024722427
136711.78459859695
141045.6526656554
145074.84647105148
148698.0341022701
151829.59549811858
103351.14208723206
104151.9958401046
105263.80633305761
106743.1412845299
108645.94350707522
111018.33411275422
113884.95334732636
117238.12148847223
121029.30622637582
125166.92544155565
129521.03949578828
133938.1996162254
138259.31126549584
142338.05604737438
146049.72158883954
149275.55044736507
103965.45295902393
104873.8460189524
106124.08290270527
107767.93087158928
109852.78009680394
112411.45781971977
115451.22605050876
118943.78235391145
122820.03432428981
126971.00585408128
131256.50622639092
135521.34219067733
139610.20487399038
143378.4979685953
146677.99202346973
104657.33626819542
105677.65059142667
107069.56227290686
108877.49891199043
111137.82214363545
113867.93124061856
117056.39271690803
120653.89521415805
124572.51587357403
128688.55520759043
132854.28923476275
136911.25510734407
140701.03927429754
144048.18546308484
105428.87517644305
106563.53805572426
108097.37388036173
110065.10546435526
112489.58551240672
115370.9446296987
118677.67782260127
122340.44030925565
126253.68310188845
130280.42421603989
134264.74387459422
138037.7638669905
141402.6434433795
106280.45747521876
107529.49747403292
109202.33896982766
111321.27966108893
113893.15584576366
116899.4505553779
120287.88753473817
123969.71812716468
127821.76714269695
131693.71696824927
135411.27159934104
138761.76797543094
107210.52482935363
108571.01376373267
110375.86297377688
112632.22563762244
115329.06087919287
118427.33174502778
121853.60584525873
125498.98814232308
129221.1557490441
132845.9631367398
136148.50816900027
108215.00531690926
109680.6243713431
111605.87330969934
113980.25678542478
116772.53696338579
119921.63206662369
123331.56749628144
126870.4300943021
130366.29797076124
133587.4112890944
109286.95812663344
110847.19443804896
112875.81133728214
115341.88662082837
118191.61815554817
121339.3330285711
124662.8743400582
127995.73062080125
131102.9061581111
110415.79857451054
112055.16715146559
114163.53064392263
116686.26975015116
119543.78173794974
122621.52893481606
125758.48823568922
128720.18288964182
111586.51892343594
113283.39693103847
115439.24822850034
117972.31049659423
120770.93806155343
123679.33794237586
126464.21302754208
112778.65908436905
114503.36096310393
116663.42767466714
119142.84677032483
121785.89736609343
124361.08044396853
113964.38769675959
115676.2694020555
117780.01095669507
120112.26985699755
122440.07420625997
115105.66516129815
116747.86641935125
118706.0878515002
120737.52748270899
116149.19813203443
117637.39829216342
119303.05530066669
117015.58630498554
118210.49774257706
117573.7063527992
SCALARS T float 1
LOOKUP_TABLE default
300.10833361721984
300.1080278682583
300.1537267225893
300.10603790527614
300.15357580065745
300.22115571455214
300.1026376335147
300.1507801528191
300.2212774174344
300.3216621411808
300.0980884814114
300.14583506659443
300.2171502054368
300.32222653892575
300.4721565907536
300.0926543363038
300.13918530251664
300.20964360583037
300.31583675105196
300.4734040793072
300.6989284110216
300.08659517311395
300.131256250311
300.19953613884417
300.30402838755367
300.463050942531
300.7011168966655
301.04371553774484
300.0801552791593
300.1224505818041
300.1875507400526
300.2881938176374
300.4438859286658
300.68355421856484
301.04675204615256
301.5748195451661
300.07355278810184
300.11313513201065
300.174345834734
300.2695972765
300.4184604641804
300.65151916157305
301.0154330028275
301.57669837080675
302.4093047375734
300.0669731242982
300.1036292682835
300.1604978392798
300.2493457429205
300.3890273945084
300.60981438187014
300.9602782117657
301.51760308390016
302.40004251337746
303.7625169291198
300.0605665356123
300.09419841199474
300.14648899799346
300.2283638566981
300.3574678044365
300.5624972265619
300.8905414097435
301.4196958435621
302.28126866644925
303.70094631505043
306.07479341472975
300.05444888150504
300.0850530616287
300.1327050458043
300.2073890374457
300.3252704178141
300.51275919003444
300.8135334903826
301.30105062703217
302.1020398217455
303.44588452316634
305.79634780169596
310.3837993984071
300.04870475919614
300.0763520990304
300.1194400175211
300.1869802590169
300.2935512199325
300.4629599245055
300.73457320708445
301.174614799794
301.8973299520379
303.108573249486
305.214728814638
309.2112568657616
319.52930694813455
300.0433918275935
300.06820871304257
300.1069064443644
300.16754082105547
300.26310504103094
300.41474345323934
300.6572658068513
301.0488594241647
301.68887310697403
302.7525940639761
304.5687774837589
307.83893510504623
314.5293827310692
327.47464064818627
300.03854566512115
300.06069764288736
300.09524807144567
300.14934356791457
300.2344613847019
300.3691824000566
300.58389266404197
300.92891378474576
301.4889633549241
302.40992495600705
303.9522381960058
306.6123325284254
311.4413697787652
320.20962783782613
333.4310552917365
300.03418466104114
300.05386264289524
300.08455294590755
300.1325570094381
300.20794433484355
300.32691873472027
300.51577280324744
300.817599710445
301.30387921364076
302.09488774317197
303.3967715407917
305.57185451977836
309.2696317424287
315.59572586220446
325.41339354839613
338.1095790255831
300.0303145376252
300.0477238454547
300.07486589764216
300.117269887829
300.1837241541974
300.2882801417603
300.4535548182761
300.7162286760271
301.13628105137013
301.8125911709023
302.9092625057278
304.69904720301577
307.6257332862504
312.4267220674701
319.84781513503015
329.97239388041714
341.86493290824234
300.02693244840634
300.0422841933845
300.0661998931859
300.1035115480853
300.16185848206914
300.253376300439
300.39744292946324
300.6251672628817
300.9867512908552
301.5635059209364
302.4870151707907
303.96781096980317
306.3297988441728
310.09919280749
315.86567983555676
323.9183196528334
333.90722043948796
344.9052447533695
300.0240306663978
300.03753526844724
300.05854566548055