# vtk DataFile Version 2.0
JuliaCFD
ASCII
DATASET UNSTRUCTURED_GRID

POINTS 1900 float
0.0 0.0 0.005
0.0 0.0416667 0.005
0.0 0.0833333 0.005
0.0 0.125 0.005
0.0 0.166667 0.005
0.0 0.208333 0.005
0.0 0.25 0.005
0.0 0.291667 0.005
0.0 0.333333 0.005
0.0 0.375 0.005
0.0 0.416667 0.005
0.0 0.458333 0.005
0.0 0.5 0.005
0.0 0.541667 0.005
0.0 0.583333 0.005
0.0 0.625 0.005
0.0 0.666667 0.005
0.0 0.708333 0.005
0.0 0.75 0.005
0.0 0.791667 0.005
0.0 0.833333 0.005
0.0 0.875 0.005
0.0 0.916667 0.005
0.0 0.958333 0.005
0.0 1.0 0.005
0.0409575 0.0 0.005
0.0409401 0.0416667 0.005
0.0409227 0.0833333 0.005
0.0409054 0.125 0.005
0.040888 0.166667 0.005
0.0408706 0.208333 0.005
0.0408532 0.25 0.005
0.0408359 0.291667 0.005
0.0408185 0.333333 0.005
0.0408011 0.375 0.005
0.0407838 0.416667 0.005
0.0407664 0.458333 0.005
0.040749 0.5 0.005
0.0407316 0.541667 0.005
0.0407143 0.583333 0.005
0.0406969 0.625 0.005
0.0406795 0.666667 0.005
0.0406621 0.708333 0.005
0.0406448 0.75 0.005
0.0406274 0.791667 0.005
0.04061 0.833333 0.005
0.0405927 0.875 0.005
0.0405753 0.916667 0.005
0.0405579 0.958333 0.005
0.0405405 1.0 0.005
0.0819149 0.0 0.005
0.0818802 0.0416667 0.005
0.0818455 0.0833333 0.005
0.0818107 0.125 0.005
0.081776 0.166667 0.005
0.0817412 0.208333 0.005
0.0817065 0.25 0.005
0.0816717 0.291667 0.005
0.081637 0.333333 0.005
0.0816022 0.375 0.005
0.0815675 0.416667 0.005
0.0815328 0.458333 0.005
0.081498 0.5 0.005
0.0814633 0.541667 0.005
0.0814285 0.583333 0.005
0.0813938 0.625 0.005
0.081359 0.666667 0.005
0.0813243 0.708333 0.005
0.0812895 0.75 0.005
0.0812548 0.791667 0.005
0.0812201 0.833333 0.005
0.0811853 0.875 0.005
0.0811506 0.916667 0.005
0.0811158 0.958333 0.005
0.0810811 1.0 0.005
0.122872 0.0 0.005
0.12282 0.0416667 0.005
0.122768 0.0833333 0.005
0.122716 0.125 0.005
0.122664 0.166667 0.005
0.122612 0.208333 0.005
0.12256 0.25 0.005
0.122508 0.291667 0.005
0.122455 0.333333 0.005
0.122403 0.375 0.005
0.122351 0.416667 0.005
0.122299 0.458333 0.005
0.122247 0.5 0.005
0.122195 0.541667 0.005
0.122143 0.583333 0.005
0.122091 0.625 0.005
0.122039 0.666667 0.005
0.121986 0.708333 0.005
0.121934 0.75 0.005
0.121882 0.791667 0.005
0.12183 0.833333 0.005
0.121778 0.875 0.005
0.121726 0.916667 0.005
0.121674 0.958333 0.005
0.121622 1.0 0.005
0.16383 0.0 0.005
0.16376 0.0416667 0.005
0.163691 0.0833333 0.005
0.163621 0.125 0.005
0.163552 0.166667 0.005
0.163482 0.208333 0.005
0.163413 0.25 0.005
0.163343 0.291667 0.005
0.163274 0.333333 0.005
0.163204 0.375 0.005
0.163135 0.416667 0.005
0.163066 0.458333 0.005
0.162996 0.5 0.005
0.162927 0.541667 0.005
0.162857 0.583333 0.005
0.162788 0.625 0.005
0.162718 0.666667 0.005
0.162649 0.708333 0.005
0.162579 0.75 0.005
0.16251 0.791667 0.005
0.16244 0.833333 0.005
0.162371 0.875 0.005
0.162301 0.916667 0.005
0.162232 0.958333 0.005
0.162162 1.0 0.005
0.204787 0.0 0.005
0.2047 0.0416667 0.005
0.204614 0.0833333 0.005
0.204527 0.125 0.005
0.20444 0.166667 0.005
0.204353 0.208333 0.005
0.204266 0.25 0.005
0.204179 0.291667 0.005
0.204092 0.333333 0.005
0.204006 0.375 0.005
0.203919 0.416667 0.005
0.203832 0.458333 0.005
0.203745 0.5 0.005
0.203658 0.541667 0.005
0.203571 0.583333 0.005
0.203484 0.625 0.005
0.203398 0.666667 0.005
0.203311 0.708333 0.005
0.203224 0.75 0.005
0.203137 0.791667 0.005
0.20305 0.833333 0.005
0.202963 0.875 0.005
0.202876 0.916667 0.005
0.20279 0.958333 0.005
0.202703 1.0 0.005
0.245745 0.0 0.005
0.245641 0.0416667 0.005
0.245536 0.0833333 0.005
0.245432 0.125 0.005
0.245328 0.166667 0.005
0.245224 0.208333 0.005
0.245119 0.25 0.005
0.245015 0.291667 0.005
0.244911 0.333333 0.005
0.244807 0.375 0.005
0.244703 0.416667 0.005
0.244598 0.458333 0.005
0.244494 0.5 0.005
0.24439 0.541667 0.005
0.244286 0.583333 0.005
0.244181 0.625 0.005
0.244077 0.666667 0.005
0.243973 0.708333 0.005
0.243869 0.75 0.005
0.243764 0.791667 0.005
0.24366 0.833333 0.005
0.243556 0.875 0.005
0.243452 0.916667 0.005
0.243347 0.958333 0.005
0.243243 1.0 0.005
0.286702 0.0 0.005
0.286581 0.0416667 0.005
0.286459 0.0833333 0.005
0.286337 0.125 0.005
0.286216 0.166667 0.005
0.286094 0.208333 0.005
0.285973 0.25 0.005
0.285851 0.291667 0.005
0.285729 0.333333 0.005
0.285608 0.375 0.005
0.285486 0.416667 0.005
0.285365 0.458333 0.005
0.285243 0.5 0.005
0.285121 0.541667 0.005
0.285 0.583333 0.005
0.284878 0.625 0.005
0.284757 0.666667 0.005
0.284635 0.708333 0.005
0.284513 0.75 0.005
0.284392 0.791667 0.005
0.28427 0.833333 0.005
0.284149 0.875 0.005
0.284027 0.916667 0.005
0.283905 0.958333 0.005
0.283784 1.0 0.005
0.32766 0.0 0.005
0.327521 0.0416667 0.005
0.327382 0.0833333 0.005
0.327243 0.125 0.005
0.327104 0.166667 0.005
0.326965 0.208333 0.005
0.326826 0.25 0.005
0.326687 0.291667 0.005
0.326548 0.333333 0.005
0.326409 0.375 0.005
0.32627 0.416667 0.005
0.326131 0.458333 0.005
0.325992 0.5 0.005
0.325853 0.541667 0.005
0.325714 0.583333 0.005
0.325575 0.625 0.005
0.325436 0.666667 0.005
0.325297 0.708333 0.005
0.325158 0.75 0.005
0.325019 0.791667 0.005
0.32488 0.833333 0.005
0.324741 0.875 0.005
0.324602 0.916667 0.005
0.324463 0.958333 0.005
0.324324 1.0 0.005
0.368617 0.0 0.005
0.368461 0.0416667 0.005
0.368305 0.0833333 0.005
0.368148 0.125 0.005
0.367992 0.166667 0.005
0.367835 0.208333 0.005
0.367679 0.25 0.005
0.367523 0.291667 0.005
0.367366 0.333333 0.005
0.36721 0.375 0.005
0.367054 0.416667 0.005
0.366897 0.458333 0.005
0.366741 0.5 0.005
0.366585 0.541667 0.005
0.366428 0.583333 0.005
0.366272 0.625 0.005
0.366116 0.666667 0.005
0.365959 0.708333 0.005
0.365803 0.75 0.005
0.365647 0.791667 0.005
0.36549 0.833333 0.005
0.365334 0.875 0.005
0.365178 0.916667 0.005
0.365021 0.958333 0.005
0.364865 1.0 0.005
0.409575 0.0 0.005
0.409401 0.0416667 0.005
0.409227 0.0833333 0.005
0.409054 0.125 0.005
0.40888 0.166667 0.005
0.408706 0.208333 0.005
0.408532 0.25 0.005
0.408359 0.291667 0.005
0.408185 0.333333 0.005
0.408011 0.375 0.005
0.407838 0.416667 0.005
0.407664 0.458333 0.005
0.40749 0.5 0.005
0.407316 0.541667 0.005
0.407143 0.583333 0.005
0.406969 0.625 0.005
0.406795 0.666667 0.005
0.406621 0.708333 0.005
0.406448 0.75 0.005
0.406274 0.791667 0.005
0.4061 0.833333 0.005
0.405927 0.875 0.005
0.405753 0.916667 0.005
0.405579 0.958333 0.005
0.405405 1.0 0.005
0.450532 0.0 0.005
0.450341 0.0416667 0.005
0.45015 0.0833333 0.005
0.449959 0.125 0.005
0.449768 0.166667 0.005
0.449577 0.208333 0.005
0.449386 0.25 0.005
0.449195 0.291667 0.005
0.449003 0.333333 0.005
0.448812 0.375 0.005
0.448621 0.416667 0.005
0.44843 0.458333 0.005
0.448239 0.5 0.005
0.448048 0.541667 0.005
0.447857 0.583333 0.005
0.447666 0.625 0.005
0.447475 0.666667 0.005
0.447284 0.708333 0.005
0.447093 0.75 0.005
0.446901 0.791667 0.005
0.44671 0.833333 0.005
0.446519 0.875 0.005
0.446328 0.916667 0.005
0.446137 0.958333 0.005
0.445946 1.0 0.005
0.49149 0.0 0.005
0.491281 0.0416667 0.005
0.491073 0.0833333 0.005
0.490864 0.125 0.005
0.490656 0.166667 0.005
0.490447 0.208333 0.005
0.490239 0.25 0.005
0.49003 0.291667 0.005
0.489822 0.333333 0.005
0.489613 0.375 0.005
0.489405 0.416667 0.005
0.489197 0.458333 0.005
0.488988 0.5 0.005
0.48878 0.541667 0.005
0.488571 0.583333 0.005
0.488363 0.625 0.005
0.488154 0.666667 0.005
0.487946 0.708333 0.005
0.487737 0.75 0.005
0.487529 0.791667 0.005
0.48732 0.833333 0.005
0.487112 0.875 0.005
0.486903 0.916667 0.005
0.486695 0.958333 0.005
0.486486 1.0 0.005
0.531954 0.00563435 0.005
0.531749 0.0470663 0.005
0.531544 0.0884982 0.005
0.531338 0.12993 0.005
0.531133 0.171362 0.005
0.530928 0.212794 0.005
0.530722 0.254226 0.005
0.530517 0.295658 0.005
0.530312 0.33709 0.005
0.530107 0.378521 0.005
0.529901 0.419953 0.005
0.529696 0.461385 0.005
0.529491 0.502817 0.005
0.529285 0.544249 0.005
0.52908 0.585681 0.005
0.528875 0.627113 0.005
0.528669 0.668545 0.005
0.528464 0.709977 0.005
0.528259 0.751409 0.005
0.528054 0.79284 0.005
0.527848 0.834272 0.005
0.527643 0.875704 0.005
0.527438 0.917136 0.005
0.527232 0.958568 0.005
0.527027 1.0 0.005
0.572289 0.0127465 0.005
0.572093 0.0538821 0.005
0.571896 0.0950177 0.005
0.571699 0.136153 0.005
0.571502 0.177289 0.005
0.571306 0.218424 0.005
0.571109 0.25956 0.005
0.570912 0.300695 0.005
0.570715 0.341831 0.005
0.570519 0.382967 0.005
0.570322 0.424102 0.005
0.570125 0.465238 0.005
0.569928 0.506373 0.005
0.569732 0.547509 0.005
0.569535 0.588644 0.005
0.569338 0.62978 0.005
0.569142 0.670916 0.005
0.568945 0.712051 0.005
0.568748 0.753187 0.005
0.568551 0.794322 0.005
0.568355 0.835458 0.005
0.568158 0.876593 0.005
0.567961 0.917729 0.005
0.567764 0.958864 0.005
0.567568 1.0 0.005
0.612625 0.0198587 0.005
0.612436 0.0606979 0.005
0.612248 0.101537 0.005
0.61206 0.142376 0.005
0.611872 0.183216 0.005
0.611684 0.224055 0.005
0.611496 0.264894 0.005
0.611307 0.305733 0.005
0.611119 0.346572 0.005
0.610931 0.387412 0.005
0.610743 0.428251 0.005
0.610555 0.46909 0.005
0.610366 0.509929 0.005
0.610178 0.550769 0.005
0.60999 0.591608 0.005
0.609802 0.632447 0.005
0.609614 0.673286 0.005
0.609425 0.714125 0.005
0.609237 0.754965 0.005
0.609049 0.795804 0.005
0.608861 0.836643 0.005
0.608673 0.877482 0.005
0.608484 0.918322 0.005
0.608296 0.959161 0.005
0.608108 1.0 0.005
0.65296 0.0269708 0.005
0.65278 0.0675137 0.005
0.652601 0.108057 0.005
0.652421 0.148599 0.005
0.652241 0.189142 0.005
0.652062 0.229685 0.005
0.651882 0.270228 0.005
0.651702 0.310771 0.005
0.651523 0.351314 0.005
0.651343 0.391857 0.005
0.651164 0.4324 0.005
0.650984 0.472943 0.005
0.650804 0.513485 0.005
0.650625 0.554028 0.005
0.650445 0.594571 0.005
0.650265 0.635114 0.005
0.650086 0.675657 0.005
0.649906 0.7162 0.005
0.649726 0.756743 0.005
0.649547 0.797286 0.005
0.649367 0.837828 0.005
0.649188 0.878371 0.005
0.649008 0.918914 0.005
0.648828 0.959457 0.005
0.648649 1.0 0.005
0.693295 0.034083 0.005
0.693124 0.0743295 0.005
0.692953 0.114576 0.005
0.692782 0.154823 0.005
0.692611 0.195069 0.005
0.69244 0.235316 0.005
0.692269 0.275562 0.005
0.692098 0.315809 0.005
0.691926 0.356055 0.005
0.691755 0.396302 0.005
0.691584 0.436548 0.005
[...]
CELL_DATA 888
SCALARS P float 1
LOOKUP_TABLE default
100031.07839249725
100030.84019742718
100047.25359179084
100029.71405565282
100047.03028787374
100075.80696737263
100027.87540313596
100045.34048055683
100075.61313198981
100124.7019406526
100025.50790651036
100042.50378565348
100072.86484244684
100124.58298033832
100206.89972052834
100022.79989416408
100038.8367376679
100068.1575927331
100119.8917932027
100206.95601784496
100343.5699760563
100019.93089730002
100034.65035676071
100062.07381886654
100111.76678397755
100198.69957065613
100343.93886084987
100569.71268616906
100017.05835043338
100030.23187067303
100055.16857524741
100101.31622304374
100184.37026517242
100329.02398674318
100570.30159222762
100944.7533770832
100014.30858105571
100025.82668278883
100047.93652011114
100089.56474277722
100166.12272567177
100303.37497298811
100542.51023771847
100943.90502732607
101574.87521104165
100011.77313217382
100021.62718261231
100040.78509893914
100077.38952819846
100145.8740327142
100271.2521125159
100495.92699785846
100889.90785973596
101563.65939556806
102667.0810260612
100009.5096249771
100017.76949545527
100034.0216553124
100065.48134611861
100125.18564629465
100236.24665119464
100439.07356771604
100803.80542783198
101452.74975232122
102605.6780370573
104682.40068387755
100007.54579990305
100014.33672051165
100027.85443188348
100054.33685760669
100105.22317105807
100201.10652365214
100378.6139257783
100702.695437012
101290.12210241742
102361.85728516213
104398.41899790548
108845.84424463665
100005.88534621039
100011.3664642612
100022.4028154602
100044.27235852284
100086.7734243712
100167.74729655964
100319.25094357217
100598.62440230543
101109.51085628687
102047.16606012975
103822.50422678572
107557.9120925879
119159.05511192998
100004.51421449067
100008.86045553074
100017.71311393866
100035.45252467108
100070.29986424875
100137.36426830053
100263.9831464931
100499.21223945377
100931.40131267348
101723.82217982173
103200.76227238457
106122.06362212941
112955.40527637111
128591.76468181015
100003.4066397574
100006.79448189968
100013.77617442925
100027.92324917504
100056.00814885566
100110.58266463327
100214.48716742465
100408.76633996381
100766.9096524107
101421.98265727061
102624.6452777704
104892.43083257433
109472.58306901972
118968.75576537996
135778.6288243469
100002.53035693585
100005.12753986863
100010.54421012894
100021.64446081473
100043.91465382972
100087.60785996889
100171.4842314643
100329.30589813489
100621.2114876738
101154.24327735374
102121.89872931692
103888.79638950033
107185.06373256196
113474.54173253405
124614.22293103772
141426.0186690173
100001.85071562135
100003.80963158867
100007.9455748029
100016.51940328414
100033.9066049795
100068.35441104094
100135.04396620784
100261.35984301216
100495.9202785656
100924.17998993472
101696.10357491198
103077.28602837733
105542.38045901187
109987.67832186163
117666.68934949602
129623.91163108587
145921.23686877431
100001.33371976734
100002.78777118374
100005.896832933
100012.41853167693
100025.79082054984
100052.55266492064
100104.82283788506
100204.54000208183
100390.61300017466
100730.88019422513
101342.03427217976
102422.61030692978
104303.85651753882
107580.33106328262
113101.87162852236
121741.6393151132
133966.73865870535
149508.89574831477
100000.94808795005
100002.01038669664
100004.31180129932
100009.19849598057
100019.33305790619
100039.82885034037
100080.23608485694
100157.9294464138
100303.76377093245
100571.30673772194
101051.58251455122
101895.65014444735
103345.61037126338
105821.24414115578
109921.75855049207
116322.3941801639
125541.966392415
137684.2364445328
152364.22251947326
100000.66647283931
100001.43025469285
100003.10793098202
100006.71549987738
100014.28599104253
100029.76460814047
100060.58352912657
100120.35139377636
100233.31600738344
100441.54452440265
100816.061529618
101473.07701725446
102594.75083735591
104490.47298819505
107600.64067092084
112446.83285287229
119498.70114929235
128996.92684375597
140838.95123826814
154623.79643356006
100000.46610424391
100001.00621335443
100002.21049198085
100004.8346339868
100010.40935454416
100021.9381580533
100045.13394479222
100090.53907434772
100177.03561416287
100337.45548858796
100627.12515332556
101135.9752270807
102003.45745268409
103463.93197689143
105851.63636348714
109576.47807036575
115044.80045705178
122532.27051485266
132085.22506253584
143498.25876693852
156399.19012523218
100000.32908416673
100000.70404036694
100001.55484001862
100003.43534065303
100007.48203196542
100015.95138347078
100033.18078758457
100067.24620933477
100132.71496797397
100255.03096360795
100477.14842241751
100868.79961564818
101537.77667061292
102664.40840964312
104507.76997684009
107395.32331924426
111675.57763783958
117626.33254133671
125364.61685499242
134813.42710324688
145728.63332687243
157784.50151290037
100000.24259384266
100000.4968637619
100001.08752579305
100002.4144723772
100005.30969703171
100011.44594609745
100024.07561731276
100049.31550510829
100098.2934379672
100190.57630813851
100359.34981338182
100658.63271357631
101172.09643704639
102039.623879765
103464.42161313325
105710.6350110226
109076.44955548432
113829.12294148005
120125.91411073826
127966.69483110291
137204.22053018186
147593.35710088213
158860.46210055036
100000.19941196873
100000.3655129089
100000.7667635508
100001.68736709186
100003.72777426489
100008.1114716151
100017.24655257091
100035.71259125324
100071.92316638363
100140.79780373944
100267.81603474925
100494.68993611613
100886.39607668923
101551.77602904383
102650.97556427424
104397.88983815818
107046.40271182822
110846.38100985582
115978.59035109336
122499.29787871492
130329.34948191169
139288.77614825135
149151.66044952325
159696.77007191547
100000.29946212488
100000.56290640676
100001.18823672715
100002.60242122631
100005.68820810296
100012.20583323886
100025.5434639498
100051.99458337552
100102.82994623807
100197.46907991917
100367.96491358979
100664.6603624509
101172.17626699463
102016.80887861503
103371.55603912313
105450.88745068284
108482.8412834581
112658.7742805389
118078.35709557938
124719.91639295884
132457.26331966333
141101.82670359488
150457.69865879475
160350.7180284543
100000.45998571391
100000.87067034635
100001.83023831976
100003.96669043621
100008.55005950682
100018.05651158077
100037.14118775405
100074.23487460091
100144.01578607052
100270.95527563631
100493.89369173835
100878.41144039494
101523.857717335
102569.55793894283
104194.9363154292
106603.31501254652
109985.89235294712
114473.08744021946
120095.07289426312
126775.35910001899
134363.98500465503
142679.80168564158
151559.6282484198
160872.44802694378
100000.7099906432
100001.33873814656
100002.78621303826
100005.95645182101
100012.63665437208
100026.23037250224
100052.97790696377
100103.87262402877
100197.45642581182
100363.51752377831
100652.63020415248
101142.56796918766
101944.85832673238
103207.98688720191
105109.41594009778
107831.58583277215
111522.88932263397
116256.46550472235
122007.0659359665
128663.83313576516
136068.70792417682
144057.88694989684
152500.93578720745
161299.7770165812
100001.08970823919
100002.03469838311
100004.17912943625
100008.79626528342
100018.34482632605
100037.39283313393
100074.09250970422
100142.37240807171
100264.91501671144
100480.47239454988
100849.54895049048
101460.75842731468
102435.59918178593
103925.93909340285
106099.50088669473
109110.98964241201
113064.76322575951
117983.70696366821
123802.24731586516
130390.71138639147
137593.52931086163
145269.5350814864
153315.50452390724
161665.48692638843
100001.65351294693
100003.04747051334
100006.16593144598
100012.76274951811
100026.14315775009
100052.28852473789
100101.56341550573
100191.09758652035
100350.35857444121
100626.07426207207
101088.06223201164
101834.60319677784
102993.38783704575
104713.84978178749
107147.56074133719
110417.8269458949
114587.18704670401
119637.52339733689
125476.18368437051
131966.32427580463
138961.3215860894
146344.05123288324
154035.84938611832
161992.6324320916
100002.47290134693
100004.49076971407
100008.94079857881
100018.18498439807
100036.56242859094
100071.70632181645
100136.43453435264
100252.96866459688
100457.09129209511
100803.31162549987
101370.24021091656
102263.48170841264
103612.7338623303
105559.70531269976
108235.36553823044
111730.72089687963
116071.09420178048
121207.18896333712
127030.04466349569
133402.9735228769
140194.05054684987
147306.59746838192
154683.62078175542
162301.18607003568
100003.63935371874
100006.50577003797
100012.73636362805
100025.44009917042
100050.17640865386
100096.43929068792
100180.83054992819
100330.50373635016
100587.60377165051
101014.29953292906
101696.61058263374
102744.60534169017
104285.90642749183
106450.16924882603
109345.3350982193
113031.47266727051
117502.66389728249
122687.42430487594
128469.05425928395
134715.6544003636
141311.9139399994
148179.13303741266
155278.96395132638
162598.7962491946
100005.26669962752
100009.26276245549
100017.82249206562
100034.94415574688
100067.58218138266
100128.01243151612
100236.63768983436
100425.71501383242
100743.84960756545
101260.10939082342
102066.06415231974
103273.26162836417
105003.5666637349
107371.58230687451
110461.49409289182
114305.38640061083
118872.68792585724
124077.57500723304
129800.68561500474
135918.26350099721
142332.05746841346
148979.22559243953
155834.40389856274
162898.04031302815
100007.49296802744
100012.96180191111
100024.5034797862
100047.14570967008
100089.86237511835
100167.82049767819
100305.44316714483
100540.29090399665
100927.07128610129
101540.61845778553
102475.96302023095
103843.21207622593
105755.53836050155
108310.73896835193
111569.99613758425
115541.57086276893
120176.01923917644
125378.67094464075
131032.9119889355
137024.91392987515
143270.0489127202
149720.06143439212
156359.56926879042
163197.50519108705
100010.4817316298
100017.8330873753
100033.11845817819
100062.80756661679
100118.03694259177
100217.08736496556
100388.64114669662
100675.45588199407
101137.68996335883
101854.54434782457
102922.35131729943
104447.20386884235
106531.46084433659
109255.53989160566
112659.58402556628
116731.82579159687
121410.46935352887
126595.76152156851
132175.1314330327
138046.76538069142
144137.35153238144
150409.81662932597
156858.99639619945
163498.4770300846
100014.42422570867
100024.1418931927
100044.20593037756
100082.66748761667
100153.03186865422
100276.92910279054
100487.33062828287
100831.859138399
101375.24916228317
102199.52688746824
103400.23427839413
105077.41173701729
107321.36099633615
110195.43064175452
113721.50854215505
117871.92510669003
122575.48160561247
127732.5482447005
133235.44795372745
138992.73888962987
144942.45499771726
151055.51882573636
157334.28915875062
163797.33166224314
100019.54626115604
100032.27895811522
100058.29999335678
100107.41873356218
100195.71862009703
100348.27842610689
100602.23039141163
101009.53572104692
101638.45308799356
102572.26885626918
103903.9576742597
105725.96479726667
108115.9659757048
111121.67047105094
114748.86103015955
118958.5932874399
123673.34055770162
128794.22172027417
134220.83840808194
139870.5575156358
145689.97588940023
151658.1050716682
157780.54757150883
164085.4997910048
100026.16120898297
100042.6424730383
100075.91858836231
100137.73025392531
100246.85839339488
100431.81731600896
100733.61458790342
101207.87618796308
101925.24898555498
102968.82360483699
104427.48962029572
106385.25529623304
108907.31339943869
112026.99729482063
115737.381503929
119990.2001278477
124705.02865786935
129785.28244205624
135136.59101201798
140684.19782322313
146381.82188362264
152213.1229666401
158184.13591619674
164312.47045208767
100034.59401313962
100055.62898796055
100097.57235825543
100174.20652748592
100307.05387545764
100527.92620462128
100881.29100552318
101425.66502354041
102232.95396821719
103384.74952031608
104964.80855044024
107048.0213187204
109688.1909641826
112905.99984939129
116683.7729186037
120966.80158187573
125673.2697134143
130709.08642000688
135985.5394859732
141433.97767410584
147012.28191167803
152700.49143756155
158484.0096196841
100045.17520837029
100071.63553421323
100123.73604854161
100217.3529200291
100376.70046250006
100636.65045706164
101044.61717482288
101661.16424947589
102558.43031578361
103815.44128083032
105510.08784865463
107708.4149407822
110453.12110154211
113754.44518217766
117586.0410026148
121888.43065087074
126579.07750099753
131566.09855088376
136766.34701318084
142113.29067156807
147558.63992155506
153053.6141508463
100058.23904929143
100091.04090623619
100154.82262143069
100267.53916237144
100455.9592973955
100757.69058775193
101222.50367509508
101912.2190065054
102898.27769962946
104256.32182804182
106058.01941904965
108360.75505162434
111197.32744982462
114569.25186647593
118442.54726622572
122754.69407694452
127422.07427234614
132355.52194590672
137471.15689826064
142696.95756913145
147948.2048815201
100074.10845669081
100114.18361127868
100191.15586778281
100324.9723535793
100544.74649696932
100890.41636310518
101413.51369910443
102176.350088194
103248.82035371345
104702.79515228981
106603.48816637062
109000.14144119853
111917.0240304271
115347.37622844375
119251.48528623639
123563.85388164088
128198.95190697117
133066.61609913877
138074.51660968436
143108.73601374734
100093.07881385517
100141.34354814101
100232.95042180066
100389.68259843589
100642.72823682021
101033.91032604563
101615.93118470862
102450.9535154028
103606.72386436269
105150.79605881605
107142.36460458486
109622.87692326124
112608.82012866717
116086.01903833692
120010.22366431486
124310.71265677562
128899.23553599342
133672.6677705689
138496.3985187782
100115.40015878457
100172.72420475507
100280.29493388838
100461.52335546304
100749.33800277913
101187.00801754268
101827.85814551459
102733.22484671447
103968.52436216138
105596.73376963747
107670.74465719063
110225.3459988008
113269.32265568447
116781.97840701704
120712.93156282886
124984.43000648488
129494.13456756285
134094.4746683696
100141.26476291579
100208.44010886409
100333.15044345865
100540.1672712231
100863.82419750236
101348.38337926754
102047.23557879822
103020.58541609025
104330.92224225865
106036.67368043517
108185.20882987187
110803.88275274962
113894.49239429677
117429.00719023534
121347.95340326495
125556.96265476798
129906.81725737946
100170.79454302855
100248.50826029778
100391.34250334885
100625.13057578256
100985.2233010079
101516.50442585115
102272.03456356589
103310.39627839228
104690.97915154257
106467.91360344928
108682.08131657721
111354.20415124009
114477.91919178485
118014.86611613852
121886.74082531725
125951.74571039251
100204.03307782167
100292.84910140985
100454.57841156462
100715.80541349696
101112.5700918436
101689.89646802531
102500.212101876
103600.15782837503
105045.86414891023
106886.53002209972
109156.7882832066
111869.68089184092
115007.7270843613
118512.29679171796
122257.52858694186
100240.94410698861
100341.28715109194
100522.47224319761
100811.48437802975
101244.7074560858
101866.97713283243
102729.79009240837
103887.39176680286
105392.44293354054
107288.7552833165
109603.86268510192
112339.0867552634
115457.89287938489
118853.92932574454
100281.41467088998
100393.56620687399
100594.50274256869
100911.32595330355
101380.43289699938
102046.17888379529
102958.62353127442
104169.45937639075
105727.2079809535
107668.98414011681
110012.07759903018
112739.10202249275
115766.70175507992
100325.25204994534
100449.34929354282
100670.16029457438
101014.55773010303
101518.58422714312
102225.84215890004
103184.51268914029
104443.25767953065
106044.87889069888
108017.62394664562
110360.39071258901
113013.05100898318
100372.208982708
100508.23277517459
100748.78818589353
101120.18687315215
101657.87749616455
102404.18077628454
103404.91137780124
104704.34661679853
106337.19298597434
108315.48702620878
110599.18538569963
100421.97000237873
100569.77653161166
100829.73342098719
101227.29698380097
101796.89981645376
102579.03348857122
103616.0501971547
104945.54466209149
106587.88707923499
108520.04094334824
100474.18664797978
100633.47730636157
100912.26446535609
101334.7715476002
101933.90288334891
102747.28340524108
103811.80965689062
105152.67748878417
106759.77988178644
100528.44244514052
100698.7624583091
100995.52654203359
101441.19090567967
102066.2644887702
102903.89147378207
103980.40414681887
105294.92684413934
100584.24719393742
100764.94789990631
101078.34214631702
101544.52583590274
102189.91289696976
103039.10016064554
104096.3157399451
100641.02550507258
100831.12370220094
101159.18091343211
101641.44193901024
102297.11130942154
103132.19983951583
100697.98816315664
100895.94127151534
101235.24744897094
101725.61012507409
102370.98144365949
100753.95692806627
100957.18483339246
101301.56357185033
101783.84061051476
100806.99141692223
101010.77473213544
101347.49041620975
100853.47342143569
101047.94000043167
100885.78722980115
SCALARS T float 1
LOOKUP_TABLE default
300.02684507957997
300.02663314349417
300.04095203675257
300.02565351063413
300.0407431109762
300.0659782912973
300.0240581287345
300.0392624041249
300.06577081129655
300.109122227062
300.0220064244435
300.03678758467186
300.0633393421949
300.10892127475915
300.1822930742719
300.0196618475692
300.0335946158402
300.0592036591428
300.1047202663324
300.182102911245
300.30532371811404
300.0171800194292
300.02995470021733
300.05387443448825
300.097519112722
300.17459780769406
300.30506308961003
300.5117055263609
300.0146971536011
300.02611788549325
300.04783842133514
300.08829635577547
300.1617608040146
300.2912617799246
300.51080553341484
300.85940998052024
300.0123222874192
300.02229723518593
300.04152841750795
300.07795656685505
300.1455101874215
300.2679863585921
300.48457301505647
300.85523022226374
301.45305709704155
300.01013418407746
300.01865918758887
300.0352995395747
300.06727160779616
300.127551405873
300.2390658568085
300.4416714581856
300.80325225995483
301.43486987036476
302.49430637480117
300.00818217930794
300.01532093666157
300.02941823897834
300.05684596073536
300.10926699567983
300.20772200380753
300.38983744637926
300.7226991419855
301.32648950589015
302.42033749416834
304.41194475329104
300.0064897667072
300.0123534757003
300.02406370527183
300.04711086371253
300.0916809072687
300.1764033712531
300.3351006013114
300.6292426820678
301.17212095614667
302.18105825010304
304.1177463624024
308.2441203331288
300.0050597043347
300.0097883365526
300.0193373559171
300.0383377352847
300.0754763134653
300.1467975858128
300.28167536851765
300.5338663085305
301.0029112013756
301.8794698611319
303.5601887230788
307.0530861083475
316.86710560133275
300.00387950974516
300.00762607261913
300.01527703896073
300.0306646829885
300.0610479866772
300.1199389141833
300.2322039555984
300.4434220660305
300.8376362636462
301.57320499906524
302.9645778175236
305.71410496568325
311.83595875943564
324.29877459292584
300.00292667925964
300.0058449536929
300.01187267827265
300.02412625571424
300.0485630973623
300.0963500666046
300.18812010999363
300.36168139034214
300.68627625182376
301.2899741701128
302.41610326633713
304.55396468810926
308.7803029180104
316.9601782877257
329.75443667802494
300.0021731903423
300.0044089230487
300.00908107219385
300.01868276806545
300.0380236356892
300.076181981966
300.149995979082
300.29031046413786
300.5532513389567
301.0409395673444
301.9407066738971
303.60223961279155
306.68502556608456
312.3533474792301
321.602443401184
333.94368781587445
300.00158904144354
300.00327434118736
300.0068387820825
300.0142461667608
300.02932045639426
300.05933226397207
300.1178266340273
300.22962856163963
300.4396904456046
300.82876306253974
301.5411819279837
302.83328917666347
305.1478575426672
309.2538162639409
315.99766528696534
325.6015050813221
337.2266563885452
300.001144857872
300.0023951550965
300.0050725852307
300.01070092814996
300.0222765195214
300.0455414779203
300.0912500854538
300.17914769215236
300.34488820336674
300.651944775323
301.2117225949284
302.2158331023884
303.9793677950143
307.04035041872396
312.05805501000395
319.447945120574
328.9852810920629
339.8189823419571
300.0008136509639