# vtk DataFile Version 2.0
JuliaCFD
ASCII
DATASET UNSTRUCTURED_GRID

POINTS 1900 float
0.0 0.0 0.005
0.0 0.0416667 0.005
0.0 0.0833333 0.005
0.0 0.125 0.005
0.0 0.166667 0.005
0.0 0.208333 0.005
0.0 0.25 0.005
0.0 0.291667 0.005
0.0 0.333333 0.005
0.0 0.375 0.005
0.0 0.416667 0.005
0.0 0.458333 0.005
0.0 0.5 0.005
0.0 0.541667 0.005
0.0 0.583333 0.005
0.0 0.625 0.005
0.0 0.666667 0.005
0.0 0.708333 0.005
0.0 0.75 0.005
0.0 0.791667 0.005
0.0 0.833333 0.005
0.0 0.875 0.005
0.0 0.916667 0.005
0.0 0.958333 0.005
0.0 1.0 0.005
0.0409575 0.0 0.005
0.0409401 0.0416667 0.005
0.0409227 0.0833333 0.005
0.0409054 0.125 0.005
0.040888 0.166667 0.005
0.0408706 0.208333 0.005
0.0408532 0.25 0.005
0.0408359 0.291667 0.005
0.0408185 0.333333 0.005
0.0408011 0.375 0.005
0.0407838 0.416667 0.005
0.0407664 0.458333 0.005
0.040749 0.5 0.005
0.0407316 0.541667 0.005
0.0407143 0.583333 0.005
0.0406969 0.625 0.005
0.0406795 0.666667 0.005
0.0406621 0.708333 0.005
0.0406448 0.75 0.005
0.0406274 0.791667 0.005
0.04061 0.833333 0.005
0.0405927 0.875 0.005
0.0405753 0.916667 0.005
0.0405579 0.958333 0.005
0.0405405 1.0 0.005
0.0819149 0.0 0.005
0.0818802 0.0416667 0.005
0.0818455 0.0833333 0.005
0.0818107 0.125 0.005
0.081776 0.166667 0.005
0.0817412 0.208333 0.005
0.0817065 0.25 0.005
0.0816717 0.291667 0.005
0.081637 0.333333 0.005
0.0816022 0.375 0.005
0.0815675 0.416667 0.005
0.0815328 0.458333 0.005
0.081498 0.5 0.005
0.0814633 0.541667 0.005
0.0814285 0.583333 0.005
0.0813938 0.625 0.005
0.081359 0.666667 0.005
0.0813243 0.708333 0.005
0.0812895 0.75 0.005
0.0812548 0.791667 0.005
0.0812201 0.833333 0.005
0.0811853 0.875 0.005
0.0811506 0.916667 0.005
0.0811158 0.958333 0.005
0.0810811 1.0 0.005
0.122872 0.0 0.005
0.12282 0.0416667 0.005
0.122768 0.0833333 0.005
0.122716 0.125 0.005
0.122664 0.166667 0.005
0.122612 0.208333 0.005
0.12256 0.25 0.005
0.122508 0.291667 0.005
0.122455 0.333333 0.005
0.122403 0.375 0.005
0.122351 0.416667 0.005
0.122299 0.458333 0.005
0.122247 0.5 0.005
0.122195 0.541667 0.005
0.122143 0.583333 0.005
0.122091 0.625 0.005
0.122039 0.666667 0.005
0.121986 0.708333 0.005
0.121934 0.75 0.005
0.121882 0.791667 0.005
0.12183 0.833333 0.005
0.121778 0.875 0.005
0.121726 0.916667 0.005
0.121674 0.958333 0.005
0.121622 1.0 0.005
0.16383 0.0 0.005
0.16376 0.0416667 0.005
0.163691 0.0833333 0.005
0.163621 0.125 0.005
0.163552 0.166667 0.005
0.163482 0.208333 0.005
0.163413 0.25 0.005
0.163343 0.291667 0.005
0.163274 0.333333 0.005
0.163204 0.375 0.005
0.163135 0.416667 0.005
0.163066 0.458333 0.005
0.162996 0.5 0.005
0.162927 0.541667 0.005
0.162857 0.583333 0.005
0.162788 0.625 0.005
0.162718 0.666667 0.005
0.162649 0.708333 0.005
0.162579 0.75 0.005
0.16251 0.791667 0.005
0.16244 0.833333 0.005
0.162371 0.875 0.005
0.162301 0.916667 0.005
0.162232 0.958333 0.005
0.162162 1.0 0.005
0.204787 0.0 0.005
0.2047 0.0416667 0.005
0.204614 0.0833333 0.005
0.204527 0.125 0.005
0.20444 0.166667 0.005
0.204353 0.208333 0.005
0.204266 0.25 0.005
0.204179 0.291667 0.005
0.204092 0.333333 0.005
0.204006 0.375 0.005
0.203919 0.416667 0.005
0.203832 0.458333 0.005
0.203745 0.5 0.005
0.203658 0.541667 0.005
0.203571 0.583333 0.005
0.203484 0.625 0.005
0.203398 0.666667 0.005
0.203311 0.708333 0.005
0.203224 0.75 0.005
0.203137 0.791667 0.005
0.20305 0.833333 0.005
0.202963 0.875 0.005
0.202876 0.916667 0.005
0.20279 0.958333 0.005
0.202703 1.0 0.005
0.245745 0.0 0.005
0.245641 0.0416667 0.005
0.245536 0.0833333 0.005
0.245432 0.125 0.005
0.245328 0.166667 0.005
0.245224 0.208333 0.005
0.245119 0.25 0.005
0.245015 0.291667 0.005
0.244911 0.333333 0.005
0.244807 0.375 0.005
0.244703 0.416667 0.005
0.244598 0.458333 0.005
0.244494 0.5 0.005
0.24439 0.541667 0.005
0.244286 0.583333 0.005
0.244181 0.625 0.005
0.244077 0.666667 0.005
0.243973 0.708333 0.005
0.243869 0.75 0.005
0.243764 0.791667 0.005
0.24366 0.833333 0.005
0.243556 0.875 0.005
0.243452 0.916667 0.005
0.243347 0.958333 0.005
0.243243 1.0 0.005
0.286702 0.0 0.005
0.286581 0.0416667 0.005
0.286459 0.0833333 0.005
0.286337 0.125 0.005
0.286216 0.166667 0.005
0.286094 0.208333 0.005
0.285973 0.25 0.005
0.285851 0.291667 0.005
0.285729 0.333333 0.005
0.285608 0.375 0.005
0.285486 0.416667 0.005
0.285365 0.458333 0.005
0.285243 0.5 0.005
0.285121 0.541667 0.005
0.285 0.583333 0.005
0.284878 0.625 0.005
0.284757 0.666667 0.005
0.284635 0.708333 0.005
0.284513 0.75 0.005
0.284392 0.791667 0.005
0.28427 0.833333 0.005
0.284149 0.875 0.005
0.284027 0.916667 0.005
0.283905 0.958333 0.005
0.283784 1.0 0.005
0.32766 0.0 0.005
0.327521 0.0416667 0.005
0.327382 0.0833333 0.005
0.327243 0.125 0.005
0.327104 0.166667 0.005
0.326965 0.208333 0.005
0.326826 0.25 0.005
0.326687 0.291667 0.005
0.326548 0.333333 0.005
0.326409 0.375 0.005
0.32627 0.416667 0.005
0.326131 0.458333 0.005
0.325992 0.5 0.005
0.325853 0.541667 0.005
0.325714 0.583333 0.005
0.325575 0.625 0.005
0.325436 0.666667 0.005
0.325297 0.708333 0.005
0.325158 0.75 0.005
0.325019 0.791667 0.005
0.32488 0.833333 0.005
0.324741 0.875 0.005
0.324602 0.916667 0.005
0.324463 0.958333 0.005
0.324324 1.0 0.005
0.368617 0.0 0.005
0.368461 0.0416667 0.005
0.368305 0.0833333 0.005
0.368148 0.125 0.005
0.367992 0.166667 0.005
0.367835 0.208333 0.005
0.367679 0.25 0.005
0.367523 0.291667 0.005
0.367366 0.333333 0.005
0.36721 0.375 0.005
0.367054 0.416667 0.005
0.366897 0.458333 0.005
0.366741 0.5 0.005
0.366585 0.541667 0.005
0.366428 0.583333 0.005
0.366272 0.625 0.005
0.366116 0.666667 0.005
0.365959 0.708333 0.005
0.365803 0.75 0.005
0.365647 0.791667 0.005
0.36549 0.833333 0.005
0.365334 0.875 0.005
0.365178 0.916667 0.005
0.365021 0.958333 0.005
0.364865 1.0 0.005
0.409575 0.0 0.005
0.409401 0.0416667 0.005
0.409227 0.0833333 0.005
0.409054 0.125 0.005
0.40888 0.166667 0.005
0.408706 0.208333 0.005
0.408532 0.25 0.005
0.408359 0.291667 0.005
0.408185 0.333333 0.005
0.408011 0.375 0.005
0.407838 0.416667 0.005
0.407664 0.458333 0.005
0.40749 0.5 0.005
0.407316 0.541667 0.005
0.407143 0.583333 0.005
0.406969 0.625 0.005
0.406795 0.666667 0.005
0.406621 0.708333 0.005
0.406448 0.75 0.005
0.406274 0.791667 0.005
0.4061 0.833333 0.005
0.405927 0.875 0.005
0.405753 0.916667 0.005
0.405579 0.958333 0.005
0.405405 1.0 0.005
0.450532 0.0 0.005
0.450341 0.0416667 0.005
0.45015 0.0833333 0.005
0.449959 0.125 0.005
0.449768 0.166667 0.005
0.449577 0.208333 0.005
0.449386 0.25 0.005
0.449195 0.291667 0.005
0.449003 0.333333 0.005
0.448812 0.375 0.005
0.448621 0.416667 0.005
0.44843 0.458333 0.005
0.448239 0.5 0.005
0.448048 0.541667 0.005
0.447857 0.583333 0.005
0.447666 0.625 0.005
0.447475 0.666667 0.005
0.447284 0.708333 0.005
0.447093 0.75 0.005
0.446901 0.791667 0.005
0.44671 0.833333 0.005
0.446519 0.875 0.005
0.446328 0.916667 0.005
0.446137 0.958333 0.005
0.445946 1.0 0.005
0.49149 0.0 0.005
0.491281 0.0416667 0.005
0.491073 0.0833333 0.005
0.490864 0.125 0.005
0.490656 0.166667 0.005
0.490447 0.208333 0.005
0.490239 0.25 0.005
0.49003 0.291667 0.005
0.489822 0.333333 0.005
0.489613 0.375 0.005
0.489405 0.416667 0.005
0.489197 0.458333 0.005
0.488988 0.5 0.005
0.48878 0.541667 0.005
0.488571 0.583333 0.005
0.488363 0.625 0.005
0.488154 0.666667 0.005
0.487946 0.708333 0.005
0.487737 0.75 0.005
0.487529 0.791667 0.005
0.48732 0.833333 0.005
0.487112 0.875 0.005
0.486903 0.916667 0.005
0.486695 0.958333 0.005
0.486486 1.0 0.005
0.531954 0.00563435 0.005
0.531749 0.0470663 0.005
0.531544 0.0884982 0.005
0.531338 0.12993 0.005
0.531133 0.171362 0.005
0.530928 0.212794 0.005
0.530722 0.254226 0.005
0.530517 0.295658 0.005
0.530312 0.33709 0.005
0.530107 0.378521 0.005
0.529901 0.419953 0.005
0.529696 0.461385 0.005
0.529491 0.502817 0.005
0.529285 0.544249 0.005
0.52908 0.585681 0.005
0.528875 0.627113 0.005
0.528669 0.668545 0.005
0.528464 0.709977 0.005
0.528259 0.751409 0.005
0.528054 0.79284 0.005
0.527848 0.834272 0.005
0.527643 0.875704 0.005
0.527438 0.917136 0.005
0.527232 0.958568 0.005
0.527027 1.0 0.005
0.572289 0.0127465 0.005
0.572093 0.0538821 0.005
0.571896 0.0950177 0.005
0.571699 0.136153 0.005
0.571502 0.177289 0.005
0.571306 0.218424 0.005
0.571109 0.25956 0.005
0.570912 0.300695 0.005
0.570715 0.341831 0.005
0.570519 0.382967 0.005
0.570322 0.424102 0.005
0.570125 0.465238 0.005
0.569928 0.506373 0.005
0.569732 0.547509 0.005
0.569535 0.588644 0.005
0.569338 0.62978 0.005
0.569142 0.670916 0.005
0.568945 0.712051 0.005
0.568748 0.753187 0.005
0.568551 0.794322 0.005
0.568355 0.835458 0.005
0.568158 0.876593 0.005
0.567961 0.917729 0.005
0.567764 0.958864 0.005
0.567568 1.0 0.005
0.612625 0.0198587 0.005
0.612436 0.0606979 0.005
0.612248 0.101537 0.005
0.61206 0.142376 0.005
0.611872 0.183216 0.005
0.611684 0.224055 0.005
0.611496 0.264894 0.005
0.611307 0.305733 0.005
0.611119 0.346572 0.005
0.610931 0.387412 0.005
0.610743 0.428251 0.005
0.610555 0.46909 0.005
0.610366 0.509929 0.005
0.610178 0.550769 0.005
0.60999 0.591608 0.005
0.609802 0.632447 0.005
0.609614 0.673286 0.005
0.609425 0.714125 0.005
0.609237 0.754965 0.005
0.609049 0.795804 0.005
0.608861 0.836643 0.005
0.608673 0.877482 0.005
0.608484 0.918322 0.005
0.608296 0.959161 0.005
0.608108 1.0 0.005
0.65296 0.0269708 0.005
0.65278 0.0675137 0.005
0.652601 0.108057 0.005
0.652421 0.148599 0.005
0.652241 0.189142 0.005
0.652062 0.229685 0.005
0.651882 0.270228 0.005
0.651702 0.310771 0.005
0.651523 0.351314 0.005
0.651343 0.391857 0.005
0.651164 0.4324 0.005
0.650984 0.472943 0.005
0.650804 0.513485 0.005
0.650625 0.554028 0.005
0.650445 0.594571 0.005
0.650265 0.635114 0.005
0.650086 0.675657 0.005
0.649906 0.7162 0.005
0.649726 0.756743 0.005
0.649547 0.797286 0.005
0.649367 0.837828 0.005
0.649188 0.878371 0.005
0.649008 0.918914 0.005
0.648828 0.959457 0.005
0.648649 1.0 0.005
0.693295 0.034083 0.005
0.693124 0.0743295 0.005
0.692953 0.114576 0.005
0.692782 0.154823 0.005
0.692611 0.195069 0.005
0.69244 0.235316 0.005
0.692269 0.275562 0.005
0.692098 0.315809 0.005
0.691926 0.356055 0.005
0.691755 0.396302 0.005
0.691584 0.436548 0.005
[...]
CELL_DATA 888
SCALARS P float 1
LOOKUP_TABLE default
100095.73697440633
100095.426663216
100136.8626064418
100093.39398221803
100136.72091554615
100199.56475175176
100089.92629049196
100133.86498372338
100199.73025290146
100294.96579088751
100085.30153127154
100128.81351997844
100195.50499972269
100295.66389190895
100440.01274047786
100079.8016741867
100122.0377581951
100187.80319039509
100289.11969964986
100441.61613688889
100660.81795838758
100073.70426639079
100113.99089230108
100177.4502718656
100276.95705397033
100431.05343628647
100663.88187412205
100998.4030927909
100067.26876242518
100105.10200016414
100165.21611887573
100260.65488936515
100411.28845522167
100646.12076623135
101003.47492619685
101519.39141829075
100060.7247013148
100095.76041636533
100151.80228376639
100241.55952406397
100385.03343904683
100613.15924364465
100972.19626560631
101525.78055347201
102338.42197366411
100054.26442867272
100086.30234680025
100137.82113010086
100220.850427982
100354.68512172725
100570.09664936189
100915.7703258319
101467.51028155517
102338.59144066286
103672.3759119739
100048.04046264762
100077.00352186855
100123.78151303885
100199.51100355807
100322.24604484503
100521.23906887982
100843.99306385
101368.11911181019
102222.3257722
103628.25080289377
105994.46987810744
100042.16655226694
100068.07810573929
100110.08557959726
100178.32146338087
100289.30030210575
100469.97775996596
100764.59706852779
101246.67188438123
102041.63111644532
103377.21138499302
105734.68124107245
110548.97315872555
100036.72136532863
100059.68246031489
100097.03375945309
100157.86719997141
100257.03191669143
100418.82379267349
100683.2212337951
101116.8173436275
101833.32790517053
103037.66659867048
105147.5201704557
109286.44430370403
121389.13208188424
100031.75352391513
100051.92190987605
100084.83590184321
100138.56253370023
100226.27755078094
100369.52693789899
100603.70473288331
100987.52408800508
101620.28708741523
102676.67162591142
104491.06700621363
107829.51992731533
115166.61510750455
131385.658619525
100027.287233448
100044.8590052213
100073.62537618949
100120.67779304997
100197.58490538783
100323.22438122304
100528.48920750416
100864.27158543395
101415.53558500885
102327.84265846772
103863.99131634315
106550.80308885025
111639.84547358452
121725.12837391999
139135.85039687195
100023.32792924192
100038.5220801624
100063.47373816333
100104.36781207034
100171.27619156514
100280.5870950236
100458.99120348768
100750.11782367196
101225.84509848886
102006.38587798609
103298.7208068203
105479.0106722064
109283.52220342442
116171.10175906065
127953.38371420169
145340.84321774764
100019.86748041875
100032.91366279591
100054.40481660413
100089.69895185574
100147.5036292066
100241.94235670162
100395.90454815056
100646.51866843899
101054.20622879399
101717.97609581097
102802.18942810582
104585.72088881556
107551.99785296449
112598.32633590401
120947.94618301583
133566.68875952522
150376.08810402962
100016.88887883634
100028.01785952388
100046.40758011559
100076.67190394086
100126.29452976337
100207.37633100392
100339.43649150281
100553.9107458187
100901.40681300104
101463.47341303193
102371.79804439827
103839.543090246
106209.23884508917
110082.13427474909
116289.7355198891
125647.37449871759
138518.06134000808
154471.91780800672
100014.3704063268
100023.80699310683
100039.44709896848
100065.24219673117
100107.59106207937
100176.81090190841
100289.47343902613
100472.09772019177
100766.98746141368
101241.37967573885
102001.63713787805
103214.45524373661
105135.36508412812
108195.67909064832
112986.203160782
120140.80995702413
130096.35518395147
142832.71790742635
157788.15343084454
100012.28923140714
100020.24738100485
100033.47383940776
100055.33584783532
100091.27899816382
100150.06334891406
100245.70626444735
100400.51962150999
100649.81983780659
101049.13022772419
101684.92785604938
102689.76229795831
104260.96224165162
106723.36605551046
110517.25783993171
116136.56255160908
123987.12623397638
134207.20485944557
146555.87716678708
160445.9638016767
100010.62480261402
100017.30435644182
100028.4319042851
100046.86320726051
100077.21263039486
100126.88965682147
100207.7147415569
100338.41961761565
100548.46268463958
100883.7624967974
101414.99826802706
102248.86048899533
103541.28950913536
105545.16804671897
108601.42498708953
113104.05645401553
119411.38739292877
127714.2642953353
137941.0893339237
149737.64589579208
162542.28607590136
100009.36241678172
100014.94704814129
100024.26577455674
100039.72919109215
100065.23122456958
100107.0170890806
100175.02692085714
100284.95569316148
100461.36362511177
100742.26985863305
101185.6879090574
101878.25653304663
102945.1901806388
104587.60577338297
107076.78795771775
110734.31046541153
115874.9084012753
122707.5171743712
131246.5208883795
141286.40018400335
152427.73113828694
164158.0041160993
100008.49764668489
100013.15370580916
100020.9270720055
100033.8433258046
100055.17501147544
100090.16790032454
100147.15912947764
100239.2762642656
100386.9818084007
100621.78810841689
100991.46850472387
101566.83829063491
102449.55336255254
103801.83650953263
105843.46731415618
108841.09289920052
113071.96709641724
118749.792631278
125943.48098227805
134536.80742141098
144247.59369179775
154674.0888026409
165363.03710406527
100008.04339189363
100011.91881395914
100018.38235226973
100029.12849331462
100046.8963683503
100076.07728937258
100123.64487877458
100200.56056222074
100323.86181988874
100519.6855756617
100827.46919276747
101305.37723660597
102036.58308307416
103153.20189438628
104835.22414725766
107305.96887440869
110809.68041583801
115557.3879700398
121656.2656897398
129057.78750349993
137557.9545291291
146839.08419850664
156522.94653195541
166219.01331529467
100011.26491482566
100016.62388226468
100025.53214294568
100040.27265261885
100064.50821253915
100104.0558923933
100168.0516795908
100270.66934398715
100433.59439005636
100689.44255961101
101086.16798877867
101692.20472047442
102615.80651721882
104005.45926935048
106049.091181819
108961.20238330985
112944.76581075005
118132.82645018864
124532.81150062116
132006.14202027363
140296.90199523306
149080.83359496176
158018.1054213902
166778.03591262913
100015.6878929499
100023.04184064365
100035.22053208324
100055.26705057512
100088.01921615479
100141.07515131363
100226.21342412892
100361.42771203387
100573.7268023256
100902.74952872809
101405.04242936551
102169.6871474886
103319.72161149609
105013.60980676598
107438.84702884094
110786.09371804493
115203.58144005048
120743.85129806011
127329.13816114435
134758.19246554194
142751.08862827515
150997.0096267214
159200.44849317506
167088.8291224859
100021.712045335
100031.7185784839
100048.22295633562
100075.23383691117
100119.05507022237
100189.4610096833
100301.37619164272
100477.18359501955
100749.71320969552
101165.82714604468
101799.05502891354
102751.61141096165
104157.20037320306
106178.82794007998
108992.06371958744
112751.06212227426
117542.01222640251
123341.98494154726
130006.18739143386
137295.1843286794
144925.6427595056
152613.52559379928
160109.53536035385
167190.26908823586
100029.84477276806
100043.3382761139
100065.49722573622
100101.534757308
100159.54648187562
100251.90123385213
100397.15327795177
100622.52723782604
100966.94607947832
101491.22337827558
102280.41577070359
103447.31439200338
105132.86626993725
107496.05263592415
110689.74132916168
114822.5231301486
119917.31746461554
125885.60762706272
132534.72639930798
139607.56149853065
146831.63010759256
153957.91046565984
160779.12841162682
167121.14453989235
100040.72110660393
100058.74496975959
100088.20612337983
100135.79069342755
100211.73478784705
100331.413962794
100517.42053090516
100802.13122714972
101235.90154600106
101889.5923648166
102858.28444963884
104263.23856629203
106246.51783279816
108954.40825091749
112507.97546503754
116965.45848158753
122290.05638909955
128340.70421223022
134894.5668960096
141693.01259906823
148484.18709998185
155057.13416195623
161244.86028181377
166912.60765611596
100055.12377050986
100078.96386934012
100117.73713941548
100179.89354858345
100278.160944875
100431.28697662117
100666.22499229648
101024.71079199864
101565.79190374231
102369.54223116915
103539.87287661836
105202.28216707814
107493.14880333676
110537.9989052035
114419.69773170656
119145.2401033907
124625.44617518788
130680.4925414087
137073.11502297147
143554.37956325358
149900.909880218
155937.8587005826
161535.82801793938
166597.95144418892
100074.0033687804
100105.22002003696
100155.71679460756
100236.00583359323
100361.6324686261
100555.03371880206
100850.8099161212
101298.16786480349
101964.46532938593
102938.42481542453
104329.91128296428
106263.54352103556
108863.27689851956
112227.12442668686
116396.31283306268
121329.28424250509
126893.85413676426
132885.09528465956
139064.11881518597
145200.16287581404
151101.24819261595
156627.10145074077
161682.94536579834
166200.51480708751
100098.4967222831
100138.95468047081
100204.01850863281
100306.54885076071
100465.20981694467
100708.66644234401
101077.90946790445
101629.5339623835
102439.04725273198
103601.90805065323
105230.21240253936
107442.30227770862
110343.46315502857
113999.45374398363
118409.18199594732
123487.96736777488
129071.13968166082
134941.3264865668
140866.98679068522
146641.39765002936
152105.44327670953
157151.2644484817
161713.25380089995
165753.07230408533
100129.94442902695
100181.83904364728
100264.76683662584
100394.21274363679
100593.8941929308
100897.9164007977
101353.75515480356
102025.47446368441
102995.52104772172
104363.48311990532
106239.49867323732
108730.22930703634
111917.20048014914
115831.2195580646
120430.88176671058
125595.63562837838
131138.7404368786
136840.21644881566
142484.96323892396
147892.84346463397
152935.54524669092
157536.03477605092
161655.03242799116
165278.68482481234
100169.90673470494
100235.78738647363
100340.36012760786
100503.18806749997
100752.57159962042
101128.25663633329
101684.43506856168
102491.9394943799
103638.35772660385
105224.25414185059
107353.40513600461
110115.89467279601
113565.76514507661
117698.39177865042
122436.14706261993
127630.27688128734
133083.18196933696
138579.75873605604
143925.75787931122
148969.9306550018
153613.32486832349
157806.42586774006
161535.52052407686
164809.9686743503
100220.18293602088
100302.99174875017
100434.36191608172
100637.6547434943
100946.02569705345
101405.16539390235
102075.62057489333
103033.80634628529
104370.18502782194
106182.7828226939
108564.63881908281
111585.26572895439
115269.16494994338
119577.63442107262
124402.52990775689
129575.38419254603
134894.93414150216
140159.79559442645
145199.06624364143
149889.50197180014
154161.2658993607
157989.47798691507
161384.65716505362
164382.03306065834
100282.85154503853
100386.56563109509
100550.39137482095
100801.80245197004
101179.14380366879
101733.91743097083
102532.29653199053
103654.650397723
105191.61184575885
107235.02910535455
109863.34750770462
113122.49979741378
117006.91146466271
121447.13612234892
126310.25746733096
131417.2964851988
136570.0915539482
141584.9163106825
146316.95719725592
150670.41242972843
154601.9982470099
158111.76094438217
161233.98624098857
164044.71960371244
100360.7786364563
100489.72639567096
100692.15071967915
100999.97877025153
101456.74549487626
102119.35405537546
103058.48239042079
104356.45680942637
106101.10705088588
108374.61863027237
111237.48400354013
114710.53369188558
118759.06108639012
123286.81898001028
128143.6952165255
133146.143313168
138106.39930764126
142861.93997765027
147293.0661532717
151331.5127778771
154959.34288833162
158200.73463446883
161119.69884951191
163846.60627856405
100456.95083447901
100615.81329152484
100863.52978272947
101236.5562779842
101783.4178550928
102565.66277139
103657.01893869633
105139.46383330504
107095.00166685399
109592.91668611242
112673.4366707752
116331.46268569442
120506.1020642874
125079.29622252022
129889.79260694169
134756.2858557446
139506.04435648324
143999.28238827712
148141.76594416937
151891.67629287145
155255.13310540153
158280.0220036852
161066.85609490378
100574.50302403294
100768.3611152835
101068.49559354827
101515.79321275663
102163.29572303743
103076.16255918035
104329.40302901286
106002.10371969346
108167.5812467448
110879.51198719974
114156.41746525092
117968.30082120233
122230.5425495702
126809.41101049806
131538.5792649283
136244.38298757415
140772.22845767086
145005.6314605055
148876.59013456965
152367.0122438079
155502.9750916276
158353.44486259884
100716.76477593406
100951.0207265825
101310.9818419001
101841.66991722764
102599.88812855158
103653.10294893736
105075.56932887378
106940.99601500986
109311.31296320852
112222.57781966052
115671.10316290378
119603.59800577094
123916.02691938356
128464.4905165123
133082.4149097475
137608.82351465593
141908.9813460432
145890.38440460994
149507.42239827
152761.3400887072
155685.97558889329
100887.19170186597
101167.44934756777
101594.75157515032
102217.71152845248
103095.91241243131
104297.51461909544
105893.91208670908
107950.94355937309
110516.77210108304
113608.82476441772
117201.45825792618
121220.72588316872
125547.91581832246
130033.04975149606
134515.17221919782
138848.72559420054
142919.1475659305
146655.73141325003
150029.56978577495
153039.33352007592
101089.27803183359
101421.20374937868
101923.25063326063
102646.83811750947
103653.1060453798
105009.12359906218
106781.23438698301
109025.20506989915
111773.67753875714
115024.5747063304
118732.11095884327
122804.5169891968
127112.67240600864
131505.11800927878
135831.15549064474
139960.71491566589
143799.12695525828
147287.85083010574
150389.75884690034
101326.43971685387
101715.61360496574
102299.46003446882
103131.22654424701
104272.10228896822
105786.23027529009
107732.76699550227
110155.23441811162
113070.07706354091
116455.6682670327
120247.33104832008
124339.85516432348
128597.08651841934
132870.89542655167
137021.93616608577
140934.9932191752
144525.1941723047
147718.9198409155
101601.91400033362
102053.64301971557
102725.7740267175
103672.12471987057
104952.36534297685
106625.7323620878
108742.10234443092
111331.4744855405
114392.91611797744
117886.37308236292
121731.4436315056
125811.29289486603
129987.23778726129
134116.88689919794
138071.05302498708
141739.82880889587
145016.48099439358
101918.63092718147
102437.76022220518
103203.81709834238
104269.75711310218
105691.92184636013
107522.8596321168
109801.440645064
112542.70891625564
115728.37945198777
119301.69514219523
123167.54224970388
127201.77779459073
131265.29644093447
135220.42289649896
138937.98666819642
142280.35947249123
102279.07545393928
102869.81388578624
103734.35807565649
104923.24586349542
106487.74463758184
108471.607335541
110901.36776914985
113776.30848618135
117061.20073964071
120683.35433623138
124536.03091762232
128489.54875940518
132403.36227950355
136133.90397210108
139517.87337871216
102685.17194329604
103350.87902089077
104317.20129666243
105630.44399700733
107334.98403191345
109464.11790234329
112030.82503270541
115017.84528266818
118373.77062945884
122011.29461438807
125813.32908478455
129642.27276632421
133347.22371224384
136742.92554553496
103138.15688598619
103881.15463593176
104950.85318302044
106387.65628153563
108227.1898913621
110490.77184948235
113176.35149488812
116250.34751419019
119645.26230977019
123259.04808694901
126962.51183068102
130601.22351254584
133975.1456564492
103638.40302290526
104459.7682460216
105632.79191105768
107189.97926633066
109156.23740521434
111539.61134748926
114321.91851892458
117452.96689622874
120847.73693456114
124387.98165799942
127920.82339732768
131238.03301423293
104185.3533591958
105084.63079909947
106358.69040283168
108030.10061271458
110111.49656099244
112595.71270824922
115447.39972681958
118597.82226209513
121941.34712390974
125331.85088302594
128557.1701130967
104777.23413432101
105752.2619541902
107122.57316573823
108898.83610838612
111079.29547677767
113639.71389494183
116525.2642597112
119644.30714707937
122859.03864253298
125958.89673184422
105410.9360005664
106457.36525751668
107916.12830687335
109783.65417930135
112041.41306307161
114644.97418105807
117515.13625238418
120524.73443749295
123468.28992006509
106081.55688288741
107192.39206781086
108727.9579815248
110667.48745295171
112972.19041731617
115572.2692327444
118350.54704927778
121109.80177340924
106781.95992521064
107946.76930483259
109542.01707888623
111526.35326258023
113834.12797065165
116357.02806920414
118906.12827578642
107502.12031031135
108705.59260544158
110336.00807893767
112324.42000622037
114565.81951506974
116879.39777702752
108227.73451704904
109447.39155399385
111075.67723921505
113003.07360455401
115053.10455030529
108938.07976983933
110139.92377116288
111705.9819569839
113455.69549098531
109601.97966006843
110730.90905314218
112126.35114364453
110168.79191209418
111125.04252348447
110546.92593526162
SCALARS T float 1
LOOKUP_TABLE default
300.08264366106084
300.08236127870435
300.11848707035244
300.08058858398044
300.1183308968158
300.17344189382476
300.0775743337607
300.1158191081214
300.17350803494656
300.25766350335914
300.07356017110226
300.11140175826847
300.169748287369
300.25809420741507
300.38690672548813
300.06879150046154
300.10549022252496
300.16295916035693
300.2521822268796
300.3879056944969
300.5859550222595
300.0635096945187
300.09848092505365
300.15386539508626
300.2413510064287
300.37818375882796
300.5877318800915
300.89459406096137
300.0579400087324
300.0907489123052
300.1431446680255
300.2269087473837
300.3603603038951
300.5710251807257
300.896995091971
301.3786319376233
300.0522812763217
300.08263370844526
300.1314138738127
300.21004946483043
300.33685625083956
300.5408569567141
300.8668796126304
301.3795835983195
302.15205571857916
300.0466996623796
300.07442755744853
300.1192097506667
300.1918173843361
300.3098155393834
300.5018259445989
300.8143687921409
301.322256398348
302.14152763891616
303.4267113646852
300.0413265041001
300.06636918856697
300.10697624400143
300.1730791781844
300.2810242408164
300.4578199064709
300.7483924215719
301.2281678930477
302.0254721552832
303.36359510098555
305.63976482315
300.03625936803195
300.05864314800147
300.0950621677486
300.154517903159
300.25188602198057
300.4118861715629
300.67599596145425
301.1148679645845
301.85185343831427
303.1128589032426
305.3598422433517
309.82837294712624
300.03156537270155
300.05138337597003
300.08372623773545
300.13664166089393
300.22344006240445
300.36626010062434
300.6022800845178
300.99488906045406
301.65479285783533
302.7838394200961
304.7850949114454
308.6550647817658
318.84040523976734
300.0272856497331
300.04467935366887
300.0731474686043
300.11980606029095
300.19641122032266
300.322477556447
300.53067024981874
300.8763777853313
301.4553895691845
302.4387710697251
304.1511701539864
307.2927716481058
313.83865281977995
326.65184449846265
300.02344028629545
300.0385834851803
300.0634380354559
300.10423944214887
300.1712653215745
300.28151630484797
300.4632978822784
300.76420846045824
301.26546968210556
302.108707979247
303.5498603108458
306.0825281696127
310.761827204739
319.3771715312217
332.4737472682225
300.02003325182216
300.03311866252807
300.0546564612861
300.09006898170634
300.14826820801716
300.2439342149125
300.4013552560249
300.6609998942611
301.0909631610023
301.80733299789733
303.0115904979884
305.0622822343672
308.6096178725039
314.7702030140245
324.4345810295306
337.0154073669351
300.01705691630156
300.02828564014567
300.04682014103895
300.0773451000443
300.1275367873109
300.20998400871474
300.3453824057387
300.56789888189604
300.9342653551038
301.5393010573671
302.5424275023269
304.2120469037777
306.9904891036427
311.62025063040943
318.8671692938412
328.84301052317846
340.63128455875346
300.0144961043075
300.0240694680427
300.0399166704788
300.06606184046973
300.10908001608686
300.17970798190555
300.2954889084531
300.4851351613614
300.79575136011533
301.3047502633002
302.1391105289438
303.5047023195084
305.7225326809414
309.31981463495185
314.8993744354207
322.7755788810376
332.62345764708215
343.529777744921
300.0123316846917
300.02044524144145
300.0339134180139
300.056174969176