# vtk DataFile Version 2.0
JuliaCFD
ASCII
DATASET UNSTRUCTURED_GRID

POINTS 1900 float
0.0 0.0 0.005
0.0 0.0416667 0.005
0.0 0.0833333 0.005
0.0 0.125 0.005
0.0 0.166667 0.005
0.0 0.208333 0.005
0.0 0.25 0.005
0.0 0.291667 0.005
0.0 0.333333 0.005
0.0 0.375 0.005
0.0 0.416667 0.005
0.0 0.458333 0.005
0.0 0.5 0.005
0.0 0.541667 0.005
0.0 0.583333 0.005
0.0 0.625 0.005
0.0 0.666667 0.005
0.0 0.708333 0.005
0.0 0.75 0.005
0.0 0.791667 0.005
0.0 0.833333 0.005
0.0 0.875 0.005
0.0 0.916667 0.005
0.0 0.958333 0.005
0.0 1.0 0.005
0.0409575 0.0 0.005
0.0409401 0.0416667 0.005
0.0409227 0.0833333 0.005
0.0409054 0.125 0.005
0.040888 0.166667 0.005
0.0408706 0.208333 0.005
0.0408532 0.25 0.005
0.0408359 0.291667 0.005
0.0408185 0.333333 0.005
0.0408011 0.375 0.005
0.0407838 0.416667 0.005
0.0407664 0.458333 0.005
0.040749 0.5 0.005
0.0407316 0.541667 0.005
0.0407143 0.583333 0.005
0.0406969 0.625 0.005
0.0406795 0.666667 0.005
0.0406621 0.708333 0.005
0.0406448 0.75 0.005
0.0406274 0.791667 0.005
0.04061 0.833333 0.005
0.0405927 0.875 0.005
0.0405753 0.916667 0.005
0.0405579 0.958333 0.005
0.0405405 1.0 0.005
0.0819149 0.0 0.005
0.0818802 0.0416667 0.005
0.0818455 0.0833333 0.005
0.0818107 0.125 0.005
0.081776 0.166667 0.005
0.0817412 0.208333 0.005
0.0817065 0.25 0.005
0.0816717 0.291667 0.005
0.081637 0.333333 0.005
0.0816022 0.375 0.005
0.0815675 0.416667 0.005
0.0815328 0.458333 0.005
0.081498 0.5 0.005
0.0814633 0.541667 0.005
0.0814285 0.583333 0.005
0.0813938 0.625 0.005
0.081359 0.666667 0.005
0.0813243 0.708333 0.005
0.0812895 0.75 0.005
0.0812548 0.791667 0.005
0.0812201 0.833333 0.005
0.0811853 0.875 0.005
0.0811506 0.916667 0.005
0.0811158 0.958333 0.005
0.0810811 1.0 0.005
0.122872 0.0 0.005
0.12282 0.0416667 0.005
0.122768 0.0833333 0.005
0.122716 0.125 0.005
0.122664 0.166667 0.005
0.122612 0.208333 0.005
0.12256 0.25 0.005
0.122508 0.291667 0.005
0.122455 0.333333 0.005
0.122403 0.375 0.005
0.122351 0.416667 0.005
0.122299 0.458333 0.005
0.122247 0.5 0.005
0.122195 0.541667 0.005
0.122143 0.583333 0.005
0.122091 0.625 0.005
0.122039 0.666667 0.005
0.121986 0.708333 0.005
0.121934 0.75 0.005
0.121882 0.791667 0.005
0.12183 0.833333 0.005
0.121778 0.875 0.005
0.121726 0.916667 0.005
0.121674 0.958333 0.005
0.121622 1.0 0.005
0.16383 0.0 0.005
0.16376 0.0416667 0.005
0.163691 0.0833333 0.005
0.163621 0.125 0.005
0.163552 0.166667 0.005
0.163482 0.208333 0.005
0.163413 0.25 0.005
0.163343 0.291667 0.005
0.163274 0.333333 0.005
0.163204 0.375 0.005
0.163135 0.416667 0.005
0.163066 0.458333 0.005
0.162996 0.5 0.005
0.162927 0.541667 0.005
0.162857 0.583333 0.005
0.162788 0.625 0.005
0.162718 0.666667 0.005
0.162649 0.708333 0.005
0.162579 0.75 0.005
0.16251 0.791667 0.005
0.16244 0.833333 0.005
0.162371 0.875 0.005
0.162301 0.916667 0.005
0.162232 0.958333 0.005
0.162162 1.0 0.005
0.204787 0.0 0.005
0.2047 0.0416667 0.005
0.204614 0.0833333 0.005
0.204527 0.125 0.005
0.20444 0.166667 0.005
0.204353 0.208333 0.005
0.204266 0.25 0.005
0.204179 0.291667 0.005
0.204092 0.333333 0.005
0.204006 0.375 0.005
0.203919 0.416667 0.005
0.203832 0.458333 0.005
0.203745 0.5 0.005
0.203658 0.541667 0.005
0.203571 0.583333 0.005
0.203484 0.625 0.005
0.203398 0.666667 0.005
0.203311 0.708333 0.005
0.203224 0.75 0.005
0.203137 0.791667 0.005
0.20305 0.833333 0.005
0.202963 0.875 0.005
0.202876 0.916667 0.005
0.20279 0.958333 0.005
0.202703 1.0 0.005
0.245745 0.0 0.005
0.245641 0.0416667 0.005
0.245536 0.0833333 0.005
0.245432 0.125 0.005
0.245328 0.166667 0.005
0.245224 0.208333 0.005
0.245119 0.25 0.005
0.245015 0.291667 0.005
0.244911 0.333333 0.005
0.244807 0.375 0.005
0.244703 0.416667 0.005
0.244598 0.458333 0.005
0.244494 0.5 0.005
0.24439 0.541667 0.005
0.244286 0.583333 0.005
0.244181 0.625 0.005
0.244077 0.666667 0.005
0.243973 0.708333 0.005
0.243869 0.75 0.005
0.243764 0.791667 0.005
0.24366 0.833333 0.005
0.243556 0.875 0.005
0.243452 0.916667 0.005
0.243347 0.958333 0.005
0.243243 1.0 0.005
0.286702 0.0 0.005
0.286581 0.0416667 0.005
0.286459 0.0833333 0.005
0.286337 0.125 0.005
0.286216 0.166667 0.005
0.286094 0.208333 0.005
0.285973 0.25 0.005
0.285851 0.291667 0.005
0.285729 0.333333 0.005
0.285608 0.375 0.005
0.285486 0.416667 0.005
0.285365 0.458333 0.005
0.285243 0.5 0.005
0.285121 0.541667 0.005
0.285 0.583333 0.005
0.284878 0.625 0.005
0.284757 0.666667 0.005
0.284635 0.708333 0.005
0.284513 0.75 0.005
0.284392 0.791667 0.005
0.28427 0.833333 0.005
0.284149 0.875 0.005
0.284027 0.916667 0.005
0.283905 0.958333 0.005
0.283784 1.0 0.005
0.32766 0.0 0.005
0.327521 0.0416667 0.005
0.327382 0.0833333 0.005
0.327243 0.125 0.005
0.327104 0.166667 0.005
0.326965 0.208333 0.005
0.326826 0.25 0.005
0.326687 0.291667 0.005
0.326548 0.333333 0.005
0.326409 0.375 0.005
0.32627 0.416667 0.005
0.326131 0.458333 0.005
0.325992 0.5 0.005
0.325853 0.541667 0.005
0.325714 0.583333 0.005
0.325575 0.625 0.005
0.325436 0.666667 0.005
0.325297 0.708333 0.005
0.325158 0.75 0.005
0.325019 0.791667 0.005
0.32488 0.833333 0.005
0.324741 0.875 0.005
0.324602 0.916667 0.005
0.324463 0.958333 0.005
0.324324 1.0 0.005
0.368617 0.0 0.005
0.368461 0.0416667 0.005
0.368305 0.0833333 0.005
0.368148 0.125 0.005
0.367992 0.166667 0.005
0.367835 0.208333 0.005
0.367679 0.25 0.005
0.367523 0.291667 0.005
0.367366 0.333333 0.005
0.36721 0.375 0.005
0.367054 0.416667 0.005
0.366897 0.458333 0.005
0.366741 0.5 0.005
0.366585 0.541667 0.005
0.366428 0.583333 0.005
0.366272 0.625 0.005
0.366116 0.666667 0.005
0.365959 0.708333 0.005
0.365803 0.75 0.005
0.365647 0.791667 0.005
0.36549 0.833333 0.005
0.365334 0.875 0.005
0.365178 0.916667 0.005
0.365021 0.958333 0.005
0.364865 1.0 0.005
0.409575 0.0 0.005
0.409401 0.0416667 0.005
0.409227 0.0833333 0.005
0.409054 0.125 0.005
0.40888 0.166667 0.005
0.408706 0.208333 0.005
0.408532 0.25 0.005
0.408359 0.291667 0.005
0.408185 0.333333 0.005
0.408011 0.375 0.005
0.407838 0.416667 0.005
0.407664 0.458333 0.005
0.40749 0.5 0.005
0.407316 0.541667 0.005
0.407143 0.583333 0.005
0.406969 0.625 0.005
0.406795 0.666667 0.005
0.406621 0.708333 0.005
0.406448 0.75 0.005
0.406274 0.791667 0.005
0.4061 0.833333 0.005
0.405927 0.875 0.005
0.405753 0.916667 0.005
0.405579 0.958333 0.005
0.405405 1.0 0.005
0.450532 0.0 0.005
0.450341 0.0416667 0.005
0.45015 0.0833333 0.005
0.449959 0.125 0.005
0.449768 0.166667 0.005
0.449577 0.208333 0.005
0.449386 0.25 0.005
0.449195 0.291667 0.005
0.449003 0.333333 0.005
0.448812 0.375 0.005
0.448621 0.416667 0.005
0.44843 0.458333 0.005
0.448239 0.5 0.005
0.448048 0.541667 0.005
0.447857 0.583333 0.005
0.447666 0.625 0.005
0.447475 0.666667 0.005
0.447284 0.708333 0.005
0.447093 0.75 0.005
0.446901 0.791667 0.005
0.44671 0.833333 0.005
0.446519 0.875 0.005
0.446328 0.916667 0.005
0.446137 0.958333 0.005
0.445946 1.0 0.005
0.49149 0.0 0.005
0.491281 0.0416667 0.005
0.491073 0.0833333 0.005
0.490864 0.125 0.005
0.490656 0.166667 0.005
0.490447 0.208333 0.005
0.490239 0.25 0.005
0.49003 0.291667 0.005
0.489822 0.333333 0.005
0.489613 0.375 0.005
0.489405 0.416667 0.005
0.489197 0.458333 0.005
0.488988 0.5 0.005
0.48878 0.541667 0.005
0.488571 0.583333 0.005
0.488363 0.625 0.005
0.488154 0.666667 0.005
0.487946 0.708333 0.005
0.487737 0.75 0.005
0.487529 0.791667 0.005
0.48732 0.833333 0.005
0.487112 0.875 0.005
0.486903 0.916667 0.005
0.486695 0.958333 0.005
0.486486 1.0 0.005
0.531954 0.00563435 0.005
0.531749 0.0470663 0.005
0.531544 0.0884982 0.005
0.531338 0.12993 0.005
0.531133 0.171362 0.005
0.530928 0.212794 0.005
0.530722 0.254226 0.005
0.530517 0.295658 0.005
0.530312 0.33709 0.005
0.530107 0.378521 0.005
0.529901 0.419953 0.005
0.529696 0.461385 0.005
0.529491 0.502817 0.005
0.529285 0.544249 0.005
0.52908 0.585681 0.005
0.528875 0.627113 0.005
0.528669 0.668545 0.005
0.528464 0.709977 0.005
0.528259 0.751409 0.005
0.528054 0.79284 0.005
0.527848 0.834272 0.005
0.527643 0.875704 0.005
0.527438 0.917136 0.005
0.527232 0.958568 0.005
0.527027 1.0 0.005
0.572289 0.0127465 0.005
0.572093 0.0538821 0.005
0.571896 0.0950177 0.005
0.571699 0.136153 0.005
0.571502 0.177289 0.005
0.571306 0.218424 0.005
0.571109 0.25956 0.005
0.570912 0.300695 0.005
0.570715 0.341831 0.005
0.570519 0.382967 0.005
0.570322 0.424102 0.005
0.570125 0.465238 0.005
0.569928 0.506373 0.005
0.569732 0.547509 0.005
0.569535 0.588644 0.005
0.569338 0.62978 0.005
0.569142 0.670916 0.005
0.568945 0.712051 0.005
0.568748 0.753187 0.005
0.568551 0.794322 0.005
0.568355 0.835458 0.005
0.568158 0.876593 0.005
0.567961 0.917729 0.005
0.567764 0.958864 0.005
0.567568 1.0 0.005
0.612625 0.0198587 0.005
0.612436 0.0606979 0.005
0.612248 0.101537 0.005
0.61206 0.142376 0.005
0.611872 0.183216 0.005
0.611684 0.224055 0.005
0.611496 0.264894 0.005
0.611307 0.305733 0.005
0.611119 0.346572 0.005
0.610931 0.387412 0.005
0.610743 0.428251 0.005
0.610555 0.46909 0.005
0.610366 0.509929 0.005
0.610178 0.550769 0.005
0.60999 0.591608 0.005
0.609802 0.632447 0.005
0.609614 0.673286 0.005
0.609425 0.714125 0.005
0.609237 0.754965 0.005
0.609049 0.795804 0.005
0.608861 0.836643 0.005
0.608673 0.877482 0.005
0.608484 0.918322 0.005
0.608296 0.959161 0.005
0.608108 1.0 0.005
0.65296 0.0269708 0.005
0.65278 0.0675137 0.005
0.652601 0.108057 0.005
0.652421 0.148599 0.005
0.652241 0.189142 0.005
0.652062 0.229685 0.005
0.651882 0.270228 0.005
0.651702 0.310771 0.005
0.651523 0.351314 0.005
0.651343 0.391857 0.005
0.651164 0.4324 0.005
0.650984 0.472943 0.005
0.650804 0.513485 0.005
0.650625 0.554028 0.005
0.650445 0.594571 0.005
0.650265 0.635114 0.005
0.650086 0.675657 0.005
0.649906 0.7162 0.005
0.649726 0.756743 0.005
0.649547 0.797286 0.005
0.649367 0.837828 0.005
0.649188 0.878371 0.005
0.649008 0.918914 0.005
0.648828 0.959457 0.005
0.648649 1.0 0.005
0.693295 0.034083 0.005
0.693124 0.0743295 0.005
0.692953 0.114576 0.005
0.692782 0.154823 0.005
0.692611 0.195069 0.005
0.69244 0.235316 0.005
0.692269 0.275562 0.005
0.692098 0.315809 0.005
0.691926 0.356055 0.005
0.691755 0.396302 0.005
0.691584 0.436548 0.005
[...]
CELL_DATA 888
SCALARS P float 1
LOOKUP_TABLE default
100068.23409109522
100067.94839217026
100099.06366469608
100066.22194584101
100098.89598030096
100148.12707519025
100063.30553527181
100096.43265475593
100148.17687432376
100225.51098079038
100059.44818511094
100092.12670957153
100144.44526144813
100225.94984001353
100346.85626720592
100054.9044760559
100086.40107595109
100137.74108800957
100220.02029831958
100347.97950419514
100536.6463568824
100049.92391423744
100079.66676108693
100128.81322610381
100209.18611779514
100338.17947348105
100538.89543089375
100833.89424461857
100044.7368100598
100072.31199304495
100118.367184295
100194.80897142673
100320.18225807005
100522.08231869324
100837.64815032769
101302.77656274971
100039.54279755465
100064.68499885267
100107.0446937461
100178.1382060596
100296.52337902055
100491.47987993724
100807.55875566686
101307.09749303602
102054.98129956367
100034.50419917928
100057.08052442539
100095.39978803783
100160.26569411796
100269.45430380969
100451.92094380592
100754.30127314657
101250.35294841927
102051.98986738508
103303.82020751292
100029.74408582908
100049.73307568235
100083.88381729902
100142.09196463504
100240.84952741083
100407.49398547855
100687.26509034466
101155.26235646984
101937.77472970368
103255.05961934409
105517.92570808996
100025.34799237235
100042.81660503634
100072.84254398606
100124.31730911219
100212.17520602705
100361.40298617994
100613.85529398074
101040.25824400231
101763.0063946622
103007.01703873025
105252.03665350708
109934.14814238496
100021.36814125987
100036.44904154736
100062.52192420198
100107.4503831782
100184.50492894271
100315.99189896889
100539.43715552532
100918.4942542227
101563.50389777996
102675.79811955866
104669.82859551482
108666.69662492018
120586.27863442124
100017.82888404047
100030.69973457172
100053.08006630077
100091.83221508107
100158.57111604133
100272.85830461017
100467.61470017902
100798.5429133576
101361.39502980367
102326.87458753354
104025.31653952388
107219.13313567612
114377.36523950163
130379.37941300597
100014.73259422893
100025.59821853775
100044.60207013015
100077.66411939099
100134.8237784466
100232.99949212359
100400.62224769076
100685.55685409426
101169.14374850385
101992.77993697935
103414.80116370894
105957.79679328919
110869.59464964338
120742.93455963016
137922.54300125278
100012.06542690695
100021.14312562319
100037.11528291056
100065.03695589726
100113.4940554648
100196.9572065091
100339.69046539738
100582.31627199931
100993.0791287415
101687.95269004232
102869.25153909651
104908.52865372202
108538.32446324166
115215.86801742463
126762.32081157282
143917.12082562578
100009.80249812854
100017.31071999934
100030.6037799673
100053.95862451376
100094.65018205756
100164.93996155393
100285.34509487997
100490.0350323183
100835.82951069796
101417.49229772585
102394.62852638616
104041.2590839333
106836.69993158932
111675.47251134446
119786.55777484548
132155.27188796463
148740.7465794703
100007.91241047205
100014.06227713439
100025.0213807148
100044.37739510168
100078.24331745051
100136.92533619716
100237.64044187611
100408.9345850017
100697.87490934288
101181.80290549943
101987.62958450816
103323.50725622862
105527.44763189767
109196.69732777773
115165.4721336421
124262.89923987826
136878.87092389303
152626.90423176644
100006.36110793035
100011.35049685964
100020.30256228962
100036.20239791434
100064.14723636844
100112.7370548138
100196.32475146535
100338.62606231034
100578.48738422788
100979.0077811143
101641.79802436128
102728.45622857212
104489.65802874135
107351.6869364724
111905.55778056796
118794.47575313655
128475.95454735162
140962.46901821144
155738.74790088373
100005.11503784645
100009.12486814788
100016.37149197605
100029.31929980406
100052.18745855129
100092.10458744437
100160.96434978618
100278.37599871903
100476.30061023739
100806.21569627467
101349.90443610924
102234.78545096601
103653.08064572739
105923.81283292266
109485.44824335241
114837.58623630852
122401.74847101016
132342.5653851505
144455.4479858771
158201.29177748776
100004.14391077033
100007.3360715324
100013.14962629846
100023.60354808895
100042.16550873347
100074.70646293284
100131.02782357174
100227.27206168961
100389.66006678487
100660.17601877442
101104.890640671
101825.37172820403
102972.28465616693
104792.1201590332
107622.39694291516
111859.74030456932
117873.87636024015
125877.16547261771
135828.66462071784
147412.29541857442
160115.65530455022
100003.42333833865
100005.93983177343
100010.56162893827
100018.93004070706
100033.87522072339
100060.20224987177
100105.94497332707
100184.3338142715
100316.82254650859
100537.62534015987
100900.25479151093
101486.27215882516
102415.51549112865
103882.32489781112
106153.34064137933
109550.25548869165
114395.44201855669
120915.04846047972
129149.82443761776
138927.51663539483
149887.69345805707
161567.01498568532
100002.93782428015
100004.90077602933
100008.5407379165
100015.18168909223
100027.11720378262
100048.25535446414
100085.14619575416
100148.58678969982
100256.07711445428
100435.46914067192
100730.16351876872
101205.97552415133
101959.141975642
103144.87769389864
104977.38087289511
107721.39318582814
111658.5079002635
117015.60244799661
123884.14003826333
132177.8634071801
141648.7169569995
151934.61733078238
162629.22718589258
100002.68525022396
100004.1971349425
100007.03430193415
100012.25629800667
100021.7085471423
100038.5494967772
100068.09001435457
100119.1027056673
100205.81718575045
100350.86918126246
100589.47127178802
100974.89391683383
101584.90084025334
102544.48597866933
104027.38496744532
106253.38775833306
109468.26131073345
113892.42169425066
119651.7757404477
126724.76939099887
134939.4869094594
144012.27178851105
153603.94617819524
163367.56501232984
100003.82819195821
100006.0108283279
100010.0743907116
100017.4925689777
100030.80114186055
100054.28197664967
100095.02996656363
100164.57516369595
100281.27429912181
100473.6842083996
100784.99657875876
101278.29005420954
102054.68954991264
103255.95233483304
105065.21243858615
107696.13646313307
111357.6175478508
116197.56042624664
122247.21025312007
129398.16184204968
137427.11066509478
146043.4623154855
154943.84470615242
163837.48337211332
100005.47153915603
100008.58933948659
100014.34868628318
100024.77108476298
100043.28835599337
100075.60987243104
100131.04233999886
100224.43455221776
100378.9189127345
100629.52897426115
101027.54864305678
101655.00692265817
102627.91107057175
104098.96925161868
106252.9093398005
109283.2434955605
113349.2360951803
118523.73321177777
124756.99677257694
131879.80296596163
139644.04262859852
147771.3958695774
155999.15475026792
164090.4663458198
100007.8045277782
100012.20711089503
100020.27745487422
100034.74786646987
100060.18846177115
100104.07958062002
100178.39502355382
100301.83923391916
100502.8165853565
100823.05634217284
101329.17946321947
102116.21139147715
103311.39380079048
105073.41278923608
107578.04779681924
110986.86356170049
115402.55227856475
120827.46695594156
127147.87418439788
134156.59900197375
141600.95625343025
149226.53095582404
156812.87316516554
164167.8520419092
100011.07326857296
100017.21550358074
100028.38901515165
100048.22973410836
100082.72153405409
100141.48503956784
100239.60744955864
100400.0888323614
100656.8810016426
101064.09128320817
101699.5483297967
102669.08715498906
104108.12731351134
106173.64175636011
109022.59983750453
112776.20350009305
117479.2872093106
123072.7406085836
129396.64680388733
136224.9477153823
143313.99490925702
150440.3707027764
157421.51184876676
164109.81964959827
100015.59236297377
100024.05577950174
100039.33377266639
100066.18622724648
100112.31041404833
100189.83825961064
100317.35751879097
100522.46505481414
100849.06257768741
101360.84122504306
102145.6149111181
103318.21333177378
105016.86429098516
107389.05155605827
110564.6516944963
114620.01009646273
119545.194497914
125231.51115450395
131488.9239113261
138088.14458545682
144802.7579085304
151443.16750194787
157862.74981353572
163948.4759044249
100021.75659403484
100033.27174785503
100053.8959002901
100089.75529002203
100150.5680806623
100251.31478969583
100414.38731556702
100675.35779749967
101086.24996064826
101719.71714070592
102672.58573408703
104065.07608567171
106032.27096891023
108704.97057186672
112180.1329289251
116488.28790008032
121571.22820731979
127283.10772746868
133417.97810918416
139753.98972547957
146088.6186299156
152264.00481315394
158166.6979935701
163716.66321837276
100030.05251727343
100045.52046456632
100073.00082551029
100120.23945273108
100199.26726722655
100328.20390964403
100535.8087174216
100864.48217381704
101374.14120563163
102145.99186125988
103283.51260364463
104907.95367678824
107145.37593812797
110103.8966151562
113844.38128242307
118353.76625424449
123533.80037696702
129213.48209424666
135183.15985514026
141235.26272199114
147193.9639451443
152931.3906242061
158364.28609007967
163436.4931644831
100041.06878033144
100061.58107283662
100097.7178659481
100159.09309628699
100260.3189451835
100424.57293746498
100686.31581053147
101094.79457918736
101717.75960986599
102643.47516307703
103978.99797163418
105842.02348699336
108344.17542533306
111566.66700499745
115533.5006158427
120192.62083362839
125414.87413441234
131015.21855666625
136788.64356950595
142546.4509383449
148140.95038490996
153472.09576238942
158481.36183956993
163137.92066985974
100055.50569320537
100082.36178615532
100129.26018753098
100207.92212256721
100336.95242326567
100544.25735894583
100870.15547650585
101370.87928946414
102121.13088198735
103214.16199995622
104757.15392145551
106859.68164874846
109614.52993586488
113073.55453043537
117225.43633027581
121985.24059072943
127201.67028477034
132684.76381889178
138241.6019839281
143704.78840541278
148952.4702283494
153910.92210994902
158543.51462792285
162839.61192582682
100074.18382761435
100108.90674381983
100168.99603261154
100269.29791505747
100432.29415182662
100690.84794052532
101091.38903427513
101696.68278992764
102587.02334527763
103858.13705195961
105613.71551598771
107951.09746506326
110940.99568641037
114605.31911798606
118900.7071945432
123715.62587184929
128886.33349085826
134224.60311918712
139552.78426167878
144727.03026852146
149649.81859571638
154270.43028587452
158573.62139925128
162567.1623618778
100098.05539800918
100142.41718995626
100218.99784956893
100345.76749624885
100549.3525254565
100867.87303357484
101353.68937356771
102075.26088455491
103116.73949867053
104573.53720242962
106542.28425226126
109104.7368757723
112307.68061456259
116143.98920345814
120542.83973721738
125372.96516452135
130464.48750554278
135638.1672566444
140733.81013184084
145630.0497905172
150253.54369235112
154573.6594290003
158594.8584481487
162345.08902438683
100128.23015146444
100184.61373685933
100281.36156568
100439.84823736796
100691.15248154325
101078.6446342273
101660.15001073813
102508.63746065665
103710.04762131146
105356.60353597903
107534.7470797171
110308.10107039484
113698.89224462328
117673.48300438399
122137.96687000222
126949.03716994233
131936.45542287143
136932.64084467568
141797.44278138885
146431.36204632453
150782.59490467535
154840.74524852267
158628.1832420855
162203.87084090788
100166.23672760521
100237.27304750483
100358.20838232772
100554.11649922635
100860.61311471254
101326.09980623728
102013.10339104106
102997.6383945318
104365.17095366455
106201.99779458101
108581.64681752188
111548.25390777696
115100.00738970391
119179.61927923393
123676.03813469059
128438.88309700997
133303.22221769017
138116.23088476228
142756.6290207039
147146.7738253162
151255.00936139934
155089.2179083829
158691.6832996893
162152.48416031591
100213.67138474752
100302.22580945124
100451.74098053631
100691.11449628457
101060.43396345185
101612.65831790931
102414.00141616292
103541.83879149286
105078.87207490386
107102.94401304182
109672.76316498776
112812.08399509577
116497.18561341183
120650.76456722575
125149.27252371938
129840.82972887023
134569.16197535925
139197.4692245926
143623.4574111651
147790.05529823265
151683.46663035438
155325.5878717994
158772.9075965706
100272.2018119485
100381.39058439499
100564.16981281007
100853.25967143287
101292.95505303217
101940.09576150168
102863.34742486672
104139.5924201164
105846.61871458389
108051.6942574203
110797.44564235002
114087.84349868467
117878.7352574075
122077.30511477366
126552.44466772964
131154.54506313082
135738.47201561456
140183.57528484278
144407.2076006682
148369.16084460812
152065.88547759314
155519.1263433636
100343.58402601955
100476.72219863294
100697.64200992603
101042.74017150274
101560.05619266945
102309.4420918678
103360.59339619798
104788.10512822925
106662.83227999212
109039.85475524298
111945.13252507657
115363.74220418953
119233.99930695801
123451.7593932001
127881.76879854417
132380.36911811982
136814.80634183655
141080.88958535122
145110.75812545058
148873.80071128142
152353.8532490322
100429.618297411
100590.14392917654
100854.15703396477
101261.41376439571
101863.07370274635
102720.92430702275
103904.22850490444
105483.50382230559
107520.858423378
110058.3299961505
113105.09461363671
116628.94739787561
120553.9254257969
124767.39578103312
129134.07118865152
133518.18451445678
137799.02729539946
141885.82123105813
145717.25589155406
149240.48878381492
100532.09641073807
100723.4852556074
101035.48636244434
101510.73005764272
102202.71250171006
103173.96449026756
104491.8113263934
106221.12306016301
108413.89942109268
111098.22801211975
114267.60128567586
117874.05258064628
121830.29000926124
126018.19899199874
130305.6239832211
134563.96523900016
138683.41388215104
142574.4291111858
146148.7434248231
100652.73541629166
100878.4119368112
101243.09541096349
101791.67312236043
102579.00767100583
103667.16049013993
105120.05971728725
106995.32289961688
109334.28951867144
112150.75900689496
115422.84637768999
119089.7755508539
123054.91250362141
127197.59662184621
131388.87930684272
135505.56606401884
139436.32957188066
143058.27070400256
100793.12464427126
101056.35781770045
101478.09348938843
102104.6790772857
102991.34257880549
104198.37319907549
105784.84145585756
107800.19285565848
110273.97260780087
113206.13503487656
116561.29815273797
120266.4692353553
124218.35864614564
128294.57729419191
132366.969119214
136306.03920034712
139960.70756767647
100954.66167809504
101258.4647638062
101741.15163501352
102449.62324824804
103438.30712852099
104764.57328486728
106481.44293468488
108629.01924358479
111224.7862753209
114255.61187042721
117672.48509183798
121392.84777889456
125306.90544588784
129288.15518249638
133196.9344749251
136858.8252571785
101138.4911233228
101485.53763853776
102032.49006664257
102825.8248854883
103918.07771942449
105362.26939379869
107204.42671055428
109474.52681683666
112177.83567406809
115287.87377622095
118743.62204892545
122452.8490700398
126296.5449144614
130131.38635700411
133767.3383660504
101345.46102365109
101737.98747714481
102351.86671963621
103232.00485098675
104427.88854409065
105987.07808937495
107947.66235138963
110328.55177354992
113122.6962498994
116290.42053516314
119758.3840588214
123420.24346835459
127136.94646496896
130708.62979228875
101576.0816718394
102015.81479749468
102698.39487453476
103666.13521236379
104964.27829245289
106633.86414640312
108703.74051176861
111181.40850942285
114046.75707304175
117245.50108244295
120688.12423063444
124243.54393341728
127710.71088892558
101830.45909179591
102318.53746607887
103070.83485447898
104125.8062970259
105523.13335921889
107296.35250301122
109463.88024155011
112020.91361775702
114931.91232882162
118124.75821485203
121480.58434494145
124804.3232853645
102108.30930344462
102645.15718247055
103467.0860152186
104607.3914898591
106099.13967292705
107966.73240618673
110216.83398346376
112829.80632030936
115750.40006966423
118875.55132066346
122020.19065961185
102408.83476523658
102994.13420811504
103884.43394036968
105106.5922920412
106685.47979358835
108634.59804609347
110946.28543647804
113581.14359720335
116451.60448342054
119386.96173740007
102730.73079284612
103363.18178801256
104319.15332451783
105617.45343921156
107272.81800849845
109284.88583393514
111626.68850689042
114226.14662317125
116928.73045676496
103071.95971831745
103749.07581479219
104766.10946341314
106131.63234054236
107847.26256319179
109893.97052795626
112212.49315350868
114665.4410358735
103429.56402050104
104147.26079423976
105217.78537576752
106636.83745331242
108387.33042281312
110419.75026957507
112611.79063193403
103799.3665190273
104551.1042141051
105663.38864010238
107113.4949160701
108855.08735684656
110778.53120238244
104175.17995832124
104950.53823223322
106084.98575666577
107527.09823887669
109174.51285125905
104547.55746561287
105329.4595074709
106451.77794884308
107810.18709407587
104901.3491723185
105659.8125176211
106702.97170248344
105210.04744773106
105886.19810289338
105421.80784178348
SCALARS T float 1
LOOKUP_TABLE default
300.05891619770523
300.05865809639107
300.0857978373638
300.0571537696792
300.08562565092296
300.12881262412503
300.05462035656075
300.0834617549854
300.12879194604375
300.19714154884457
300.0512742444808
300.0796993816802
300.1254773844612
300.1973744096646
300.3052737591548
300.04733678269486
300.0747075850248
300.11957409647613
300.19203202071657
300.30590922351917
300.47635767125854
300.04302470197075
300.06884549983715
300.11173932272675
300.18239840228034
300.29692352173413
300.47753093241164
300.7480844805557
300.03853770819546
300.0624519899361
300.1025933177484
300.16967741008017
300.2807274965571
300.461795219812
300.74954312592587
301.183626001337
300.0340485148754
300.055830266127
300.0926994268369
300.1549754460557
300.2595826829635
300.4338606193827
300.7207486788802
301.1831740505327
301.89377221872377
300.029697171019
300.0492361279002
300.08254234794055
300.139257257535
300.2354996103595
300.3980812101922
300.6713467313405
301.12772066798016
301.8812549485535
303.08681828455747
300.02558950191957
300.042872270376
300.07251506786986
300.1233146739825
300.21014626938404
300.35814099939364
300.6098860847991
301.0380317972816
301.7679875788794
303.0210785601234
305.19686821549715
300.0217987230748
300.03688828656044
300.0629168260221
300.10775924824344
300.18481832163354
300.31691150315356
300.5430993671011
300.9310534611637
301.6006921769407
302.7746614355397
304.9138880637421
309.261019159662
300.0183692076301
300.0313848831108
300.0539588147647
300.09303116805063
300.16045509789944
300.27647278828323
300.4758259459475
300.8188376059596
301.4125259052538
302.45478737133334
304.3458562763427
308.08464125305886
318.13627884582564
300.01532127787397
300.02642057906615
300.0457752318122
300.07942186770634
300.1376885840435
300.2382216955058
300.41126988798817
300.7091478149561
301.22386291600475
302.1221887149245
303.72493278742377
306.7319094531644
313.12924306470916
325.81248013872835
300.012656355444
300.02201948197524
300.0384367078999
300.06709984479653
300.11689881416197
300.203010646977
300.35137166627766
300.6065479828342
301.04598271703367
301.80687375815944
303.14074911333023
305.5390255230636
310.06245432790786
318.52296401540997
331.5012748519207
300.0103619677162
300.01817912362054
300.0319639299015
300.0561372737693
300.0982726789813
300.171283876029
300.29715647820024
300.51339994545435
300.884393747038
301.5217826513804
302.6223343011289
304.5412105920359
307.9305606087193
313.92057802385426
323.4333306580536
335.9111614953521
300.0084162302607
300.0148779079129
300.0263404364919
300.046534682852
300.0818550854006
300.1431914030042
300.24901679631563
300.43063310357894
300.74115624516446
301.27102199925366
302.1748028514012
303.71673726270217
306.33855907766866
310.78980365938463
317.8600340916832
327.6938586908865
339.3974186233749
300.00679174858027
300.0120815133852
300.02152401687675
300.0382416618404
300.06759032568385
300.11868294737
300.2069306870994
300.3582892941674
300.61636980443745
301.05430745181644
301.7942086705984
303.0372940300691
305.1022349636105
308.51864145322776
313.90551582542645
321.60691966776847
331.32706165438026
342.16989432345497
300.005458930434
300.00974842804544
300.0174561940142