# vtk DataFile Version 2.0
JuliaCFD
ASCII
DATASET UNSTRUCTURED_GRID

POINTS 1900 float
0.0 0.0 0.005
0.0 0.0416667 0.005
0.0 0.0833333 0.005
0.0 0.125 0.005
0.0 0.166667 0.005
0.0 0.208333 0.005
0.0 0.25 0.005
0.0 0.291667 0.005
0.0 0.333333 0.005
0.0 0.375 0.005
0.0 0.416667 0.005
0.0 0.458333 0.005
0.0 0.5 0.005
0.0 0.541667 0.005
0.0 0.583333 0.005
0.0 0.625 0.005
0.0 0.666667 0.005
0.0 0.708333 0.005
0.0 0.75 0.005
0.0 0.791667 0.005
0.0 0.833333 0.005
0.0 0.875 0.005
0.0 0.916667 0.005
0.0 0.958333 0.005
0.0 1.0 0.005
0.0409575 0.0 0.005
0.0409401 0.0416667 0.005
0.0409227 0.0833333 0.005
0.0409054 0.125 0.005
0.040888 0.166667 0.005
0.0408706 0.208333 0.005
0.0408532 0.25 0.005
0.0408359 0.291667 0.005
0.0408185 0.333333 0.005
0.0408011 0.375 0.005
0.0407838 0.416667 0.005
0.0407664 0.458333 0.005
0.040749 0.5 0.005
0.0407316 0.541667 0.005
0.0407143 0.583333 0.005
0.0406969 0.625 0.005
0.0406795 0.666667 0.005
0.0406621 0.708333 0.005
0.0406448 0.75 0.005
0.0406274 0.791667 0.005
0.04061 0.833333 0.005
0.0405927 0.875 0.005
0.0405753 0.916667 0.005
0.0405579 0.958333 0.005
0.0405405 1.0 0.005
0.0819149 0.0 0.005
0.0818802 0.0416667 0.005
0.0818455 0.0833333 0.005
0.0818107 0.125 0.005
0.081776 0.166667 0.005
0.0817412 0.208333 0.005
0.0817065 0.25 0.005
0.0816717 0.291667 0.005
0.081637 0.333333 0.005
0.0816022 0.375 0.005
0.0815675 0.416667 0.005
0.0815328 0.458333 0.005
0.081498 0.5 0.005
0.0814633 0.541667 0.005
0.0814285 0.583333 0.005
0.0813938 0.625 0.005
0.081359 0.666667 0.005
0.0813243 0.708333 0.005
0.0812895 0.75 0.005
0.0812548 0.791667 0.005
0.0812201 0.833333 0.005
0.0811853 0.875 0.005
0.0811506 0.916667 0.005
0.0811158 0.958333 0.005
0.0810811 1.0 0.005
0.122872 0.0 0.005
0.12282 0.0416667 0.005
0.122768 0.0833333 0.005
0.122716 0.125 0.005
0.122664 0.166667 0.005
0.122612 0.208333 0.005
0.12256 0.25 0.005
0.122508 0.291667 0.005
0.122455 0.333333 0.005
0.122403 0.375 0.005
0.122351 0.416667 0.005
0.122299 0.458333 0.005
0.122247 0.5 0.005
0.122195 0.541667 0.005
0.122143 0.583333 0.005
0.122091 0.625 0.005
0.122039 0.666667 0.005
0.121986 0.708333 0.005
0.121934 0.75 0.005
0.121882 0.791667 0.005
0.12183 0.833333 0.005
0.121778 0.875 0.005
0.121726 0.916667 0.005
0.121674 0.958333 0.005
0.121622 1.0 0.005
0.16383 0.0 0.005
0.16376 0.0416667 0.005
0.163691 0.0833333 0.005
0.163621 0.125 0.005
0.163552 0.166667 0.005
0.163482 0.208333 0.005
0.163413 0.25 0.005
0.163343 0.291667 0.005
0.163274 0.333333 0.005
0.163204 0.375 0.005
0.163135 0.416667 0.005
0.163066 0.458333 0.005
0.162996 0.5 0.005
0.162927 0.541667 0.005
0.162857 0.583333 0.005
0.162788 0.625 0.005
0.162718 0.666667 0.005
0.162649 0.708333 0.005
0.162579 0.75 0.005
0.16251 0.791667 0.005
0.16244 0.833333 0.005
0.162371 0.875 0.005
0.162301 0.916667 0.005
0.162232 0.958333 0.005
0.162162 1.0 0.005
0.204787 0.0 0.005
0.2047 0.0416667 0.005
0.204614 0.0833333 0.005
0.204527 0.125 0.005
0.20444 0.166667 0.005
0.204353 0.208333 0.005
0.204266 0.25 0.005
0.204179 0.291667 0.005
0.204092 0.333333 0.005
0.204006 0.375 0.005
0.203919 0.416667 0.005
0.203832 0.458333 0.005
0.203745 0.5 0.005
0.203658 0.541667 0.005
0.203571 0.583333 0.005
0.203484 0.625 0.005
0.203398 0.666667 0.005
0.203311 0.708333 0.005
0.203224 0.75 0.005
0.203137 0.791667 0.005
0.20305 0.833333 0.005
0.202963 0.875 0.005
0.202876 0.916667 0.005
0.20279 0.958333 0.005
0.202703 1.0 0.005
0.245745 0.0 0.005
0.245641 0.0416667 0.005
0.245536 0.0833333 0.005
0.245432 0.125 0.005
0.245328 0.166667 0.005
0.245224 0.208333 0.005
0.245119 0.25 0.005
0.245015 0.291667 0.005
0.244911 0.333333 0.005
0.244807 0.375 0.005
0.244703 0.416667 0.005
0.244598 0.458333 0.005
0.244494 0.5 0.005
0.24439 0.541667 0.005
0.244286 0.583333 0.005
0.244181 0.625 0.005
0.244077 0.666667 0.005
0.243973 0.708333 0.005
0.243869 0.75 0.005
0.243764 0.791667 0.005
0.24366 0.833333 0.005
0.243556 0.875 0.005
0.243452 0.916667 0.005
0.243347 0.958333 0.005
0.243243 1.0 0.005
0.286702 0.0 0.005
0.286581 0.0416667 0.005
0.286459 0.0833333 0.005
0.286337 0.125 0.005
0.286216 0.166667 0.005
0.286094 0.208333 0.005
0.285973 0.25 0.005
0.285851 0.291667 0.005
0.285729 0.333333 0.005
0.285608 0.375 0.005
0.285486 0.416667 0.005
0.285365 0.458333 0.005
0.285243 0.5 0.005
0.285121 0.541667 0.005
0.285 0.583333 0.005
0.284878 0.625 0.005
0.284757 0.666667 0.005
0.284635 0.708333 0.005
0.284513 0.75 0.005
0.284392 0.791667 0.005
0.28427 0.833333 0.005
0.284149 0.875 0.005
0.284027 0.916667 0.005
0.283905 0.958333 0.005
0.283784 1.0 0.005
0.32766 0.0 0.005
0.327521 0.0416667 0.005
0.327382 0.0833333 0.005
0.327243 0.125 0.005
0.327104 0.166667 0.005
0.326965 0.208333 0.005
0.326826 0.25 0.005
0.326687 0.291667 0.005
0.326548 0.333333 0.005
0.326409 0.375 0.005
0.32627 0.416667 0.005
0.326131 0.458333 0.005
0.325992 0.5 0.005
0.325853 0.541667 0.005
0.325714 0.583333 0.005
0.325575 0.625 0.005
0.325436 0.666667 0.005
0.325297 0.708333 0.005
0.325158 0.75 0.005
0.325019 0.791667 0.005
0.32488 0.833333 0.005
0.324741 0.875 0.005
0.324602 0.916667 0.005
0.324463 0.958333 0.005
0.324324 1.0 0.005
0.368617 0.0 0.005
0.368461 0.0416667 0.005
0.368305 0.0833333 0.005
0.368148 0.125 0.005
0.367992 0.166667 0.005
0.367835 0.208333 0.005
0.367679 0.25 0.005
0.367523 0.291667 0.005
0.367366 0.333333 0.005
0.36721 0.375 0.005
0.367054 0.416667 0.005
0.366897 0.458333 0.005
0.366741 0.5 0.005
0.366585 0.541667 0.005
0.366428 0.583333 0.005
0.366272 0.625 0.005
0.366116 0.666667 0.005
0.365959 0.708333 0.005
0.365803 0.75 0.005
0.365647 0.791667 0.005
0.36549 0.833333 0.005
0.365334 0.875 0.005
0.365178 0.916667 0.005
0.365021 0.958333 0.005
0.364865 1.0 0.005
0.409575 0.0 0.005
0.409401 0.0416667 0.005
0.409227 0.0833333 0.005
0.409054 0.125 0.005
0.40888 0.166667 0.005
0.408706 0.208333 0.005
0.408532 0.25 0.005
0.408359 0.291667 0.005
0.408185 0.333333 0.005
0.408011 0.375 0.005
0.407838 0.416667 0.005
0.407664 0.458333 0.005
0.40749 0.5 0.005
0.407316 0.541667 0.005
0.407143 0.583333 0.005
0.406969 0.625 0.005
0.406795 0.666667 0.005
0.406621 0.708333 0.005
0.406448 0.75 0.005
0.406274 0.791667 0.005
0.4061 0.833333 0.005
0.405927 0.875 0.005
0.405753 0.916667 0.005
0.405579 0.958333 0.005
0.405405 1.0 0.005
0.450532 0.0 0.005
0.450341 0.0416667 0.005
0.45015 0.0833333 0.005
0.449959 0.125 0.005
0.449768 0.166667 0.005
0.449577 0.208333 0.005
0.449386 0.25 0.005
0.449195 0.291667 0.005
0.449003 0.333333 0.005
0.448812 0.375 0.005
0.448621 0.416667 0.005
0.44843 0.458333 0.005
0.448239 0.5 0.005
0.448048 0.541667 0.005
0.447857 0.583333 0.005
0.447666 0.625 0.005
0.447475 0.666667 0.005
0.447284 0.708333 0.005
0.447093 0.75 0.005
0.446901 0.791667 0.005
0.44671 0.833333 0.005
0.446519 0.875 0.005
0.446328 0.916667 0.005
0.446137 0.958333 0.005
0.445946 1.0 0.005
0.49149 0.0 0.005
0.491281 0.0416667 0.005
0.491073 0.0833333 0.005
0.490864 0.125 0.005
0.490656 0.166667 0.005
0.490447 0.208333 0.005
0.490239 0.25 0.005
0.49003 0.291667 0.005
0.489822 0.333333 0.005
0.489613 0.375 0.005
0.489405 0.416667 0.005
0.489197 0.458333 0.005
0.488988 0.5 0.005
0.48878 0.541667 0.005
0.488571 0.583333 0.005
0.488363 0.625 0.005
0.488154 0.666667 0.005
0.487946 0.708333 0.005
0.487737 0.75 0.005
0.487529 0.791667 0.005
0.48732 0.833333 0.005
0.487112 0.875 0.005
0.486903 0.916667 0.005
0.486695 0.958333 0.005
0.486486 1.0 0.005
0.531954 0.00563435 0.005
0.531749 0.0470663 0.005
0.531544 0.0884982 0.005
0.531338 0.12993 0.005
0.531133 0.171362 0.005
0.530928 0.212794 0.005
0.530722 0.254226 0.005
0.530517 0.295658 0.005
0.530312 0.33709 0.005
0.530107 0.378521 0.005
0.529901 0.419953 0.005
0.529696 0.461385 0.005
0.529491 0.502817 0.005
0.529285 0.544249 0.005
0.52908 0.585681 0.005
0.528875 0.627113 0.005
0.528669 0.668545 0.005
0.528464 0.709977 0.005
0.528259 0.751409 0.005
0.528054 0.79284 0.005
0.527848 0.834272 0.005
0.527643 0.875704 0.005
0.527438 0.917136 0.005
0.527232 0.958568 0.005
0.527027 1.0 0.005
0.572289 0.0127465 0.005
0.572093 0.0538821 0.005
0.571896 0.0950177 0.005
0.571699 0.136153 0.005
0.571502 0.177289 0.005
0.571306 0.218424 0.005
0.571109 0.25956 0.005
0.570912 0.300695 0.005
0.570715 0.341831 0.005
0.570519 0.382967 0.005
0.570322 0.424102 0.005
0.570125 0.465238 0.005
0.569928 0.506373 0.005
0.569732 0.547509 0.005
0.569535 0.588644 0.005
0.569338 0.62978 0.005
0.569142 0.670916 0.005
0.568945 0.712051 0.005
0.568748 0.753187 0.005
0.568551 0.794322 0.005
0.568355 0.835458 0.005
0.568158 0.876593 0.005
0.567961 0.917729 0.005
0.567764 0.958864 0.005
0.567568 1.0 0.005
0.612625 0.0198587 0.005
0.612436 0.0606979 0.005
0.612248 0.101537 0.005
0.61206 0.142376 0.005
0.611872 0.183216 0.005
0.611684 0.224055 0.005
0.611496 0.264894 0.005
0.611307 0.305733 0.005
0.611119 0.346572 0.005
0.610931 0.387412 0.005
0.610743 0.428251 0.005
0.610555 0.46909 0.005
0.610366 0.509929 0.005
0.610178 0.550769 0.005
0.60999 0.591608 0.005
0.609802 0.632447 0.005
0.609614 0.673286 0.005
0.609425 0.714125 0.005
0.609237 0.754965 0.005
0.609049 0.795804 0.005
0.608861 0.836643 0.005
0.608673 0.877482 0.005
0.608484 0.918322 0.005
0.608296 0.959161 0.005
0.608108 1.0 0.005
0.65296 0.0269708 0.005
0.65278 0.0675137 0.005
0.652601 0.108057 0.005
0.652421 0.148599 0.005
0.652241 0.189142 0.005
0.652062 0.229685 0.005
0.651882 0.270228 0.005
0.651702 0.310771 0.005
0.651523 0.351314 0.005
0.651343 0.391857 0.005
0.651164 0.4324 0.005
0.650984 0.472943 0.005
0.650804 0.513485 0.005
0.650625 0.554028 0.005
0.650445 0.594571 0.005
0.650265 0.635114 0.005
0.650086 0.675657 0.005
0.649906 0.7162 0.005
0.649726 0.756743 0.005
0.649547 0.797286 0.005
0.649367 0.837828 0.005
0.649188 0.878371 0.005
0.649008 0.918914 0.005
0.648828 0.959457 0.005
0.648649 1.0 0.005
0.693295 0.034083 0.005
0.693124 0.0743295 0.005
0.692953 0.114576 0.005
0.692782 0.154823 0.005
0.692611 0.195069 0.005
0.69244 0.235316 0.005
0.692269 0.275562 0.005
0.692098 0.315809 0.005
0.691926 0.356055 0.005
0.691755 0.396302 0.005
0.691584 0.436548 0.005
[...]
CELL_DATA 888
SCALARS P float 1
LOOKUP_TABLE default
100147.49987019796
100147.15072875013
100207.72546421144
100144.74480556799
100207.59767428185
100295.23272124316
100140.61351663627
100204.25772619154
100295.50629052127
100422.77605759935
100135.06942256435
100198.30337862816
100290.66086755032
100423.73338838038
100609.38132070815
100128.42677786389
100190.26398117591
100281.73827822387
100416.39579937971
100611.4776505894
100883.79881549993
100120.99556220544
100180.64298935924
100269.65727587786
100402.58343655399
100599.89362373941
100887.71252440756
101290.38207872548
100113.06833755976
100169.917325483
100255.26583207442
100383.92078698214
100577.88987732431
100868.61940480491
101296.8458827036
101899.93705271718
100104.908126184
100158.5235629913
100239.3369958538
100361.87461466095
100548.4033532722
100832.59426341149
101263.79203291067
101908.53526624874
102832.33223237295
100096.74057507045
100146.84475961376
100222.55141874135
100337.73172938352
100514.01624976959
100785.08546347625
101203.12211846434
101847.81784623444
102835.90034786586
104311.03541521018
100088.75077428084
100135.20266589583
100205.48388594262
100312.57478171919
100476.89245720117
100730.68555276238
101125.18300161726
101742.45203135788
102716.08127673391
104271.84140399989
106818.0448564713
100081.08384440177
100123.85607328115
100188.60008903465
100287.27727893087
100438.76090158755
100673.02877487561
101038.15238545623
101612.39131593988
102526.80891926098
104015.23698834248
106564.23787165202
111611.95192878888
100073.84829009137
100113.00409389351
100172.26118071908
100262.51209336866
100400.93704028246
100614.83674796733
100948.03455615905
101471.97841364349
102306.36128012657
103663.10865021498
105967.47467105588
110351.17177436301
122782.01710786913
100067.12081196187
100102.79253393355
100156.73451138001
100238.77561707054
100364.37785708082
100558.0439965856
100858.97228630632
101330.72482010255
102078.67901409527
103284.88316632915
105292.19123703483
108875.9340149382
116525.78297958853
133142.89768705177
100060.95181039762
100093.32192408311
100142.2074523305
100216.4147225674
100329.74092448752
100503.95108999146
100773.66346240457
101194.54092886967
101857.57680183827
102915.7640558268
104640.6596751783
107568.73656421779
112962.29790623166
123425.47179828369
141275.0981776969
100055.37099630467
100084.65592054161
100128.80187407404
100195.65518951714
100297.44906630939
100453.37479657604
100693.74390869883
101066.83313454564
101650.4189371435
102572.04453592766
104047.45456328531
106462.588323315
110563.60082645483
117818.20062083084
130032.35135908908
147883.6365299544
100050.39262842234
100076.82972221523
100116.58816633862
100176.62893719583
100267.74659689602
100406.77283317756
100620.09718077174
100949.34452500546
101460.65423956315
102260.1746043554
103520.88443726368
105531.42271650454
108785.1352606128
114188.99026185817
122964.85535248788
136058.1618804905
153344.9602295242
100046.02030501225
100069.8574837486
100105.59817069698
100159.39680284937
100240.74462671585
100364.34868054834
100553.09700546943
100842.75374905471
101289.43594815738
101981.59104031409
103059.29129957492
104745.34492535882
107392.36480596745
111612.45606045758
118239.50597574473
128075.98166239636
141453.75096682057
157889.07592661452
100042.251323521
100063.73912229914
100095.83627481907
100143.96946925882
100216.4618442364
100326.12983272118
100492.77627312805
100747.07104550283
101136.60373496557
101735.24127905264
102657.44932212346
104079.36849504295
106266.70921233701
109662.65976820234
114863.6145069213
122496.64407099571
132975.96320244914
146242.3188354124
161674.7805243087
100039.08054932587
100058.46636571441
100087.28891944817
100130.32324408351
100194.85343808778
100292.02890811935
100438.95619966945
100661.91606298112
101001.27938254345
101518.91774842385
102309.10018393531
103513.55994296567
105339.7922459471
108125.20520734486
112318.2368995179
118411.10227524256
126794.00277247303
137574.4898627702
150466.87436705976
164821.74282097106
100036.50427935255
100054.02820415272
100079.93336661335
100118.41458870607
100175.83713952405
100261.88794512712
100391.33308642493
100586.68938712956
100882.23567912434
101329.95210874386
102007.98280519742
103031.899192765
104567.68471758209
106881.18494595336
110323.38652013008
115290.78267486863
122132.22168753116
131014.70683741644
141829.80020753888
154174.92472611877
167425.00759375846
100034.52463265597
100050.41642742799
100073.74506460059
100108.1907574907
100159.30985719385
100235.51224453209
100349.5396715081
100520.68811714981
100778.10571133296
101165.58541156286
101748.2727144967
102621.35562015147
103919.88623660148
105858.06051441483
108718.5610385416
112828.80985090652
118499.49165596068
125922.0321620827
135080.04826000324
145727.04037689
157413.32582809214
169563.33484650744
100033.15544944628
100047.63235080041
100068.70565150633
100099.60120603924
100145.16527920215
100212.6953693733
100313.18677580098
100463.18543679563
100687.51135531052
101023.16650200049
101524.72246693748
102271.19390892865
103373.80572346656
105007.76258049934
107405.11863081552
110840.91129798556
115592.98853151128
121863.54033043046
129696.43640344616
138939.36033521531
149266.8798455386
160226.92199162563
171303.97696666777
100032.43229354273
100045.69654293307
100064.81303715426
100092.60807895548
100133.30638154782
100193.23870351771
100281.89423943267
100413.4725647116
100609.14229094602
100900.2504786682
101332.70141351932
101972.50039330668
102912.07300328804
104296.27349400145
106317.84005234901
109210.35914689631
113222.46578393044
118559.20208894394
125308.5422004063
133390.4991233216
142561.50762642763
152459.94580207395
162658.29471592503
172705.5406113205
100044.66580069167
100062.09632507277
100087.20098063647
100123.6613853892
100176.96860636723
100255.31441314069
100370.89557125527
100541.79488080219
100794.63432574699
101168.17053577251
101717.83779936776
102520.97487435324
103698.21126828616
105410.96871323949
107858.74171804269
111263.40737219625
115826.83323659726
121668.69716743003
128769.99558139846
136955.77405377195
145928.8253099598
155321.82116141752
164747.22014496522
173816.6060362139
100060.64198627889
100083.41861028629
100116.20279629053
100163.75632863864
100233.15290879486
100334.87685611974
100484.39830710457
100704.38045611515
101027.65380070276
101500.97679834501
102189.43603672304
103194.04609104127
104650.74191287448
106730.38439905549
109630.11351269357
113543.59690245817
118611.27446551457
124864.75496247651
132193.61319050455
140357.05033381787
149033.81370948645
157871.82427372603
166530.1970867658
174682.13106534688
100081.38684816149
100110.97892376223
100153.54418344576
100215.19027829503
100304.93583091209
100436.03396817388
100627.81799390998
100908.18073921539
101316.71572811846
101908.44768866216
102768.34762905868
104011.31845986519
105783.92192360865
108260.45799363335
111622.83417403827
116022.46134880642
121530.32328251169
128095.40552166462
135535.47053384097
143570.10281296246
151876.15505971728
160130.60644589303
168041.96716019005
175336.215955086
100108.16663703798
100146.38790625599
100201.31855328508
100280.71765549965
100395.9509500811
100563.54137456854
100807.2485687006
101160.70985348521
101670.62967125903
102408.73878281936
103472.4497772687
104987.59097676467
107107.52354658546
110000.1666379454
113820.02552686082
118666.08112451514
124538.46722629023
131314.3808909534
138760.61665481114
146579.36420481862
154460.8948598435
162120.063073882
169311.00534457437
175812.83335129175
100142.52970927053
100191.59643492087
100262.03470995119
100363.59524118892
100510.4186958393
100722.78834524733
101029.36463074051
101469.92469468049
102105.19685654966
103017.9833881482
104316.36403128505
106134.69488794297
108625.95176928057
111941.67335409227
116198.5230035376
121437.61130404996
127592.14565455932
134481.96996015514
141842.41681201
149376.04217610022
156796.7446662457
163861.02991761712
170367.00735117993
176136.8591915989
100186.3496997703
100248.94209534896
100338.6625032033
100467.61938367982
100653.15605666616
100919.74933071404
101301.37258329421
101849.58914081017
102634.90900345049
103750.19669645782
105312.81762561528
107460.5720716112
110338.00599321825
114070.84086234529
118730.46594235249
124299.04975047438
130651.1554851756
137564.75020032472
144761.1608398196
151955.78936495158
158894.37743944928
165373.55036352843
171232.50779287267
176335.0758244075
100241.87086288625
100321.19327740597
100434.67269958612
100597.14767032416
100829.55892633763
101160.98337091118
101635.30719207857
102312.6794498935
103272.9161053054
104618.28794066462
106471.88682973562
108968.74474336847
112236.91061085266
116368.26119300882
121384.83773493416
127212.95177323591
133679.25087035852
140535.31960965612
147502.96962326035
154319.38439394772
160765.81016752025
166677.29492248464
171930.92104636773
176422.27375048856
100311.75157255733
100411.5915821491
100554.06841727499
100757.10573509616
101045.63173072529
101457.05358517931
102042.76451312088
102871.39394145632
104031.88669539643
105633.46493912757
107800.29482442915
110658.00554712495
114310.54385600817
118810.21929479169
124128.9015026
130143.37271860104
136644.58450877355
143372.15801476568
150058.8271724767
156469.65749489953
162423.20679327712
167790.4671838198
172480.51862564808
176421.65481627607
100399.10839518232
100523.89048249605
100701.41132925902
100953.04021621954
101310.70560483877
101818.35238755523
102534.99976638741
103537.87915254179
104923.4341448392
106804.47311132759
109300.93620492509
112522.30368730899
116542.12429687504
121369.82016133056
126929.48091955396
133056.98593049322
139519.85557009117
146057.38502617393
152422.85184198339
158412.4075580369
163879.64591343267
168729.39477531752
172899.39189530042
176344.19057006307
100507.55719261074
100662.39240472317
100881.88497807409
101193.28201546641
101634.14590795066
102255.22626760359
103123.485219852
104323.74461132466
105957.5313530578
108137.12274918839
110972.57531745626
114550.99671580044
118910.84790964173
124018.07068006218
129753.95830465532
135922.85268154612
142281.92797508268
148579.09621899817
154592.96594935827
160153.31009368712
165146.8826365801
169508.42110814966
173202.5607798141
176208.62282583053
100641.25845947723
100832.02317145688
101103.0364266611
101486.3247516797
102025.4595889255
102778.41565273695
103819.51643775312
105239.49923396489
107141.90987458747
109633.82378972304
112809.6918231559
116729.0703567438
121392.72060638928
126724.83019630458
132570.9891117536
138714.348024601
144910.78340024035
150926.43842163685
156568.16181338578
161698.4331947479
166235.98791819226
170141.84644912815
173405.64315063262
176033.44726464176
100804.99522399448
101039.75976996071
101372.65580152872
101840.93892852546
102494.6690810132
103398.75683875837
104633.79058517942
106294.12261826346
108481.59712209989
111293.16773379904
114802.53192040103
119037.75518798185
123961.2354195029
129459.6790342355
135350.39173611082
141406.51948908475
147390.92479408582
153092.3919743699
158348.8881241197
163054.4222751376
167156.44097414127
170641.61707110924
173524.00080879868
175853.46667635042
101005.43140478231
101292.88602859208
101698.90440915414
102266.47943431264
103052.056855502
104126.80638168695
105575.9046747581
107494.46248235891
109978.44766205827
113109.9024583008
116937.20481593124
121454.90885889033
126588.37503861911
132192.13955676468
138064.75959948255
143977.16218086268
149707.45588573892
155070.98652651187
159935.66393428028
164226.26996795373
167916.83619311595
171018.73813834917
173578.3371235588
175712.41973235787
101249.55350752766
101599.10408319133
102090.56617327426
102772.68555407967
103707.90030815685
104972.43806866766
106653.8890582135
108844.7512670471
111630.8055479425
115074.62166766578
119196.09147407711
123955.2857248075
129244.48301920334
134892.73011808746
140687.8202052679
146407.01029820117
151848.71431626283
156856.52405281874
161328.1511553392
165217.00732067917
168522.1925715843
171281.31298340013
173589.50094477527
101544.8071736653
101966.74556406647
102556.87021231864
103369.43398431124
104472.05827238722
105944.3898225974
107873.73174297674
110346.19732216944
113433.19915789526
117173.97957615163
121557.99618460878
126512.31949945338
131899.89178250928
137532.44077083064
143195.0594510366
148677.66881792297
153802.60374853003
158441.99096026135
162523.27779000136
166025.33681235515
168970.1121972085
171428.03520532438
101899.25996700779
102404.64301091303
103107.29506384247
104066.4335924084
105353.58929173816
107049.74916714427
109238.76682386862
111996.58943995766
115376.24715310315
119390.79581151465
123998.67909131703
129096.4978073241
134523.99428263085
140083.0311750989
145562.62067498514
150770.94344286484
155556.26689564486
159819.1777771005
163512.70489515056
166638.37587290848
169237.3100128358
102321.49167874306
102921.9253592338
103751.2960307056
104872.82367859714
106360.31299454383
108293.45930806585
110749.33588205204
113789.86561234704
117446.18127940384
121703.67450895473
126490.47514500104
131676.76546433454
137085.78992197692
142515.71756160018
147766.3812128989
152667.62461815105
157093.6489133355
160971.03627670897
164273.95375305088
167012.69662912138
102820.42796101877
103527.7898836693
104497.95481136185
105796.7794358706
107498.25849614937
109677.85030554465
112402.2969878174
115716.01855662324
119625.66930273196
124088.02386400255
129003.7067561596
134221.0943003268
139553.2718693543
144801.1422129325
149780.7802704519
154344.07180695713
158390.56940977
161864.66509453833
164743.72429556635
103405.08334535231
104231.19977201446
105355.59314807795
106845.0540295331
108771.16103870384
111202.03661085664
114190.57169948492
117760.37764295274
121892.56477545606
126515.66493685704
131505.43385989591
136694.90256064778
141892.5503683815
146907.97585987483
151575.41568676973
155768.33315994058
159402.6605391889
162419.71410377923
104084.30578178786
105040.49350980918
106331.35308515564
108022.3732947279
110179.95714731043
112861.49453929898
116102.64907276597
119904.14905869048
124220.2819130664
128953.52458059283
133959.79221991575
139060.6651355024
144066.41094305654
148798.84385639324
153109.84514146333
156885.83541388658
160033.57323120203
104866.41488064933
105962.96818196376
107430.59911608328
109330.9159925196
111721.96420016953
114647.2491470625
118122.3813878923
122123.28338196757
126577.94190122178
131366.00967372317
136326.53474438924
141276.4059162509
146031.12710282955
150424.90618795398
154318.26624737566
157583.07739055753
105758.75201501741
107004.39206391886
108656.43112864926
110769.75379038177
113390.85846725888
116545.89816870885
120228.3025745779
124388.40436857873
128929.33589478512
133710.4600516397
138559.5388808169
143292.34645896082
147730.16127058942
151710.54108736187
155073.2822048734
106767.22415766743
108168.39027733043
110009.05412327326
112334.06948048863
115175.15302775585
118538.32657143433
122393.18594525411
126664.16412986392
131231.82642610607
135938.8024293403
140605.140175534
145044.89126037454
149078.22924605221
152514.3704927276
107895.74620452808
109455.86188994291
111484.81660942148
114014.2821571338
117057.96228931998
120599.38905648352
124582.80029317884
128908.10464624659
133435.23371886378
137992.43438476036
142392.39240466597
146440.82471155364
149921.66365152743
109145.52550058714
110864.18360406258
113075.9915716588
115795.89207529242
119016.37049737039
122696.79053104477
126755.4661732404
131068.98937552184
135477.5536359022
139795.99566756134
143820.37690958663
147314.51576236874
110514.48989275702
112386.46946216663
114769.19773225806
117657.35532942458
121019.87007033468
124789.938808329
128859.93310315144
133083.19046488396
137279.64019654968
141241.30915255318
144715.1740614508
111996.28500884502
114010.68624837039
116544.92696441956
119570.24724518754
123029.34233168694
126827.8544140424
130831.47947455048
134868.33894117916
138728.71787283683
142148.0030337328
113579.51944948726
115718.48201454886
118376.10622897193
121496.85910731692
124994.72471083276
128745.63836622743
132585.791170396
136307.40374954496
139637.8697052418
115246.52379953735
117483.99335272386
120226.56332663595
123388.26472082775
126851.29238377592
130458.22245685724
134003.7373950393
137211.13034255596
116972.09999234106
119272.21041772506
122048.50609627532
125181.03770491581
128514.23484460542
131845.4682763988
134894.69653615935
118722.05187224614
121036.73676827412
123780.0203855583
126790.83483446151
129864.14561593527
132717.47934866365
120450.77547438066
122716.3923088948
125337.5930698285
128099.05500300496
130712.61368128977
122097.87389438695
124229.36889976123
126604.80289292005
128921.57709139
123582.46766474152
125461.05625065445
127400.95324599947
124791.1543172528
126234.35366319118
125549.80330508602
SCALARS T float 1
LOOKUP_TABLE default
300.1273146047436
300.1269934356987
300.1797828800617
300.12489067625216
300.1796278901023
300.25644990610135
300.1212932458197
300.17668188609537
300.2565876998861
300.3690140602539
300.1164732107552
300.1714634489782
300.2522592888828
300.3696258687803
300.5352523393797
300.11070459313726
300.1644352322174
300.2443721566683
300.3629626275931
300.5365931576388
300.7825987391582
300.104257563209
300.15603856948854
300.2337339930929
300.350619415904
300.5258591919152
300.78494529691665
301.1542991964188
300.09738669726994
300.14669141968835
300.2210930439199
300.33403533083765
300.5059316697479
300.76683550914464
301.1575804323413
301.72061716724255
300.09032034444147
300.1367755617673
300.2071311630183
300.3145148662792
300.47943684441526
300.7336939106998
301.12544622166894
301.72284559880717
302.60109247895826
300.0832538661912
300.1266248941793
300.19244692825123
300.29320132352336
300.44869197025633
300.69044472115434
301.0686536480094
301.6624873184816
302.5922736468087
304.0139763756841
300.0763469984776
300.1165187608543
300.177543506099
300.27105255393326
300.4156347711927
300.6412490972041
300.99665788900126
301.5621089608947
302.4714696681316
303.9528297870139
306.4024182932458
300.06972451591236
300.10668079698183
300.1628262181732
300.2488363867786
300.3818040646655
300.58938711055936
300.91693800104747
301.4401241524416
302.288459243585
303.69442526423063
306.1240061603207
310.8050560098342
300.06347929007393
300.09728212118426
300.14860722515147
300.22713934468226
300.3483598895668
300.5372936275639
300.8349505988798
301.30975141980326
302.07878909832493
303.35132045831256
305.5369371990744
309.6314952286837
320.0561177692224
300.05767658579435
300.0884471950728
300.13511566317607
300.20638959350777
300.3161357766858
300.4866762141157
300.7544124213442
301.17967196251385
301.86461864143917
302.98802649236666
304.88232751732005
308.2510207237626
315.05526883213116
328.1097526703977
300.05235892386986
300.08026105877974
300.12251037612754
300.18688227340334
300.2856949796439
300.4386609973868
300.67769474586254
301.05517625029825
301.6585504049942
302.63715032636856
304.25528809689916
307.012352821114
311.95777543053003
320.84903847239866
334.17802709199077
300.04755100274724
300.07277681507503
300.11089305128377
300.1688057706654
300.2573910488355
300.3939351385018
300.6061892201446
300.939209680089
301.46708602614456
302.3134388004307
303.6883247143095
305.95761467549846
309.7713491909233
316.2283500746713
326.17294414602543
338.9740796678356
300.0432642674133
300.06602305658384
300.1003207863192
300.15226653179116
300.2314199948908
300.3528645134207
300.5406033088192
300.8331789726486
301.29304836443055
302.02229227864547
303.18886622660074
305.0693949565703
308.10971230869455
313.0446958110975
320.60668580330383
330.8591535264446
342.8536935461703
300.03950106976026
300.06001036286676
300.0908175613572
300.13730960038725
300.2078618622244
300.3155912725312
300.4811895015217
300.73752506099606
301.13713989615877
301.76438513600755
302.75457827192827
304.32226881038713
306.7943757930182
310.6975282113006
316.6130780345957
324.81265954309174
334.9288917304885
346.0256751525608
300.0362584378179
300.0547372268482
300.08238399298614
300.12393723584285