# vtk DataFile Version 2.0
JuliaCFD
ASCII
DATASET UNSTRUCTURED_GRID

POINTS 1900 float
0.0 0.0 0.005
0.0 0.0416667 0.005
0.0 0.0833333 0.005
0.0 0.125 0.005
0.0 0.166667 0.005
0.0 0.208333 0.005
0.0 0.25 0.005
0.0 0.291667 0.005
0.0 0.333333 0.005
0.0 0.375 0.005
0.0 0.416667 0.005
0.0 0.458333 0.005
0.0 0.5 0.005
0.0 0.541667 0.005
0.0 0.583333 0.005
0.0 0.625 0.005
0.0 0.666667 0.005
0.0 0.708333 0.005
0.0 0.75 0.005
0.0 0.791667 0.005
0.0 0.833333 0.005
0.0 0.875 0.005
0.0 0.916667 0.005
0.0 0.958333 0.005
0.0 1.0 0.005
0.0409575 0.0 0.005
0.0409401 0.0416667 0.005
0.0409227 0.0833333 0.005
0.0409054 0.125 0.005
0.040888 0.166667 0.005
0.0408706 0.208333 0.005
0.0408532 0.25 0.005
0.0408359 0.291667 0.005
0.0408185 0.333333 0.005
0.0408011 0.375 0.005
0.0407838 0.416667 0.005
0.0407664 0.458333 0.005
0.040749 0.5 0.005
0.0407316 0.541667 0.005
0.0407143 0.583333 0.005
0.0406969 0.625 0.005
0.0406795 0.666667 0.005
0.0406621 0.708333 0.005
0.0406448 0.75 0.005
0.0406274 0.791667 0.005
0.04061 0.833333 0.005
0.0405927 0.875 0.005
0.0405753 0.916667 0.005
0.0405579 0.958333 0.005
0.0405405 1.0 0.005
0.0819149 0.0 0.005
0.0818802 0.0416667 0.005
0.0818455 0.0833333 0.005
0.0818107 0.125 0.005
0.081776 0.166667 0.005
0.0817412 0.208333 0.005
0.0817065 0.25 0.005
0.0816717 0.291667 0.005
0.081637 0.333333 0.005
0.0816022 0.375 0.005
0.0815675 0.416667 0.005
0.0815328 0.458333 0.005
0.081498 0.5 0.005
0.0814633 0.541667 0.005
0.0814285 0.583333 0.005
0.0813938 0.625 0.005
0.081359 0.666667 0.005
0.0813243 0.708333 0.005
0.0812895 0.75 0.005
0.0812548 0.791667 0.005
0.0812201 0.833333 0.005
0.0811853 0.875 0.005
0.0811506 0.916667 0.005
0.0811158 0.958333 0.005
0.0810811 1.0 0.005
0.122872 0.0 0.005
0.12282 0.0416667 0.005
0.122768 0.0833333 0.005
0.122716 0.125 0.005
0.122664 0.166667 0.005
0.122612 0.208333 0.005
0.12256 0.25 0.005
0.122508 0.291667 0.005
0.122455 0.333333 0.005
0.122403 0.375 0.005
0.122351 0.416667 0.005
0.122299 0.458333 0.005
0.122247 0.5 0.005
0.122195 0.541667 0.005
0.122143 0.583333 0.005
0.122091 0.625 0.005
0.122039 0.666667 0.005
0.121986 0.708333 0.005
0.121934 0.75 0.005
0.121882 0.791667 0.005
0.12183 0.833333 0.005
0.121778 0.875 0.005
0.121726 0.916667 0.005
0.121674 0.958333 0.005
0.121622 1.0 0.005
0.16383 0.0 0.005
0.16376 0.0416667 0.005
0.163691 0.0833333 0.005
0.163621 0.125 0.005
0.163552 0.166667 0.005
0.163482 0.208333 0.005
0.163413 0.25 0.005
0.163343 0.291667 0.005
0.163274 0.333333 0.005
0.163204 0.375 0.005
0.163135 0.416667 0.005
0.163066 0.458333 0.005
0.162996 0.5 0.005
0.162927 0.541667 0.005
0.162857 0.583333 0.005
0.162788 0.625 0.005
0.162718 0.666667 0.005
0.162649 0.708333 0.005
0.162579 0.75 0.005
0.16251 0.791667 0.005
0.16244 0.833333 0.005
0.162371 0.875 0.005
0.162301 0.916667 0.005
0.162232 0.958333 0.005
0.162162 1.0 0.005
0.204787 0.0 0.005
0.2047 0.0416667 0.005
0.204614 0.0833333 0.005
0.204527 0.125 0.005
0.20444 0.166667 0.005
0.204353 0.208333 0.005
0.204266 0.25 0.005
0.204179 0.291667 0.005
0.204092 0.333333 0.005
0.204006 0.375 0.005
0.203919 0.416667 0.005
0.203832 0.458333 0.005
0.203745 0.5 0.005
0.203658 0.541667 0.005
0.203571 0.583333 0.005
0.203484 0.625 0.005
0.203398 0.666667 0.005
0.203311 0.708333 0.005
0.203224 0.75 0.005
0.203137 0.791667 0.005
0.20305 0.833333 0.005
0.202963 0.875 0.005
0.202876 0.916667 0.005
0.20279 0.958333 0.005
0.202703 1.0 0.005
0.245745 0.0 0.005
0.245641 0.0416667 0.005
0.245536 0.0833333 0.005
0.245432 0.125 0.005
0.245328 0.166667 0.005
0.245224 0.208333 0.005
0.245119 0.25 0.005
0.245015 0.291667 0.005
0.244911 0.333333 0.005
0.244807 0.375 0.005
0.244703 0.416667 0.005
0.244598 0.458333 0.005
0.244494 0.5 0.005
0.24439 0.541667 0.005
0.244286 0.583333 0.005
0.244181 0.625 0.005
0.244077 0.666667 0.005
0.243973 0.708333 0.005
0.243869 0.75 0.005
0.243764 0.791667 0.005
0.24366 0.833333 0.005
0.243556 0.875 0.005
0.243452 0.916667 0.005
0.243347 0.958333 0.005
0.243243 1.0 0.005
0.286702 0.0 0.005
0.286581 0.0416667 0.005
0.286459 0.0833333 0.005
0.286337 0.125 0.005
0.286216 0.166667 0.005
0.286094 0.208333 0.005
0.285973 0.25 0.005
0.285851 0.291667 0.005
0.285729 0.333333 0.005
0.285608 0.375 0.005
0.285486 0.416667 0.005
0.285365 0.458333 0.005
0.285243 0.5 0.005
0.285121 0.541667 0.005
0.285 0.583333 0.005
0.284878 0.625 0.005
0.284757 0.666667 0.005
0.284635 0.708333 0.005
0.284513 0.75 0.005
0.284392 0.791667 0.005
0.28427 0.833333 0.005
0.284149 0.875 0.005
0.284027 0.916667 0.005
0.283905 0.958333 0.005
0.283784 1.0 0.005
0.32766 0.0 0.005
0.327521 0.0416667 0.005
0.327382 0.0833333 0.005
0.327243 0.125 0.005
0.327104 0.166667 0.005
0.326965 0.208333 0.005
0.326826 0.25 0.005
0.326687 0.291667 0.005
0.326548 0.333333 0.005
0.326409 0.375 0.005
0.32627 0.416667 0.005
0.326131 0.458333 0.005
0.325992 0.5 0.005
0.325853 0.541667 0.005
0.325714 0.583333 0.005
0.325575 0.625 0.005
0.325436 0.666667 0.005
0.325297 0.708333 0.005
0.325158 0.75 0.005
0.325019 0.791667 0.005
0.32488 0.833333 0.005
0.324741 0.875 0.005
0.324602 0.916667 0.005
0.324463 0.958333 0.005
0.324324 1.0 0.005
0.368617 0.0 0.005
0.368461 0.0416667 0.005
0.368305 0.0833333 0.005
0.368148 0.125 0.005
0.367992 0.166667 0.005
0.367835 0.208333 0.005
0.367679 0.25 0.005
0.367523 0.291667 0.005
0.367366 0.333333 0.005
0.36721 0.375 0.005
0.367054 0.416667 0.005
0.366897 0.458333 0.005
0.366741 0.5 0.005
0.366585 0.541667 0.005
0.366428 0.583333 0.005
0.366272 0.625 0.005
0.366116 0.666667 0.005
0.365959 0.708333 0.005
0.365803 0.75 0.005
0.365647 0.791667 0.005
0.36549 0.833333 0.005
0.365334 0.875 0.005
0.365178 0.916667 0.005
0.365021 0.958333 0.005
0.364865 1.0 0.005
0.409575 0.0 0.005
0.409401 0.0416667 0.005
0.409227 0.0833333 0.005
0.409054 0.125 0.005
0.40888 0.166667 0.005
0.408706 0.208333 0.005
0.408532 0.25 0.005
0.408359 0.291667 0.005
0.408185 0.333333 0.005
0.408011 0.375 0.005
0.407838 0.416667 0.005
0.407664 0.458333 0.005
0.40749 0.5 0.005
0.407316 0.541667 0.005
0.407143 0.583333 0.005
0.406969 0.625 0.005
0.406795 0.666667 0.005
0.406621 0.708333 0.005
0.406448 0.75 0.005
0.406274 0.791667 0.005
0.4061 0.833333 0.005
0.405927 0.875 0.005
0.405753 0.916667 0.005
0.405579 0.958333 0.005
0.405405 1.0 0.005
0.450532 0.0 0.005
0.450341 0.0416667 0.005
0.45015 0.0833333 0.005
0.449959 0.125 0.005
0.449768 0.166667 0.005
0.449577 0.208333 0.005
0.449386 0.25 0.005
0.449195 0.291667 0.005
0.449003 0.333333 0.005
0.448812 0.375 0.005
0.448621 0.416667 0.005
0.44843 0.458333 0.005
0.448239 0.5 0.005
0.448048 0.541667 0.005
0.447857 0.583333 0.005
0.447666 0.625 0.005
0.447475 0.666667 0.005
0.447284 0.708333 0.005
0.447093 0.75 0.005
0.446901 0.791667 0.005
0.44671 0.833333 0.005
0.446519 0.875 0.005
0.446328 0.916667 0.005
0.446137 0.958333 0.005
0.445946 1.0 0.005
0.49149 0.0 0.005
0.491281 0.0416667 0.005
0.491073 0.0833333 0.005
0.490864 0.125 0.005
0.490656 0.166667 0.005
0.490447 0.208333 0.005
0.490239 0.25 0.005
0.49003 0.291667 0.005
0.489822 0.333333 0.005
0.489613 0.375 0.005
0.489405 0.416667 0.005
0.489197 0.458333 0.005
0.488988 0.5 0.005
0.48878 0.541667 0.005
0.488571 0.583333 0.005
0.488363 0.625 0.005
0.488154 0.666667 0.005
0.487946 0.708333 0.005
0.487737 0.75 0.005
0.487529 0.791667 0.005
0.48732 0.833333 0.005
0.487112 0.875 0.005
0.486903 0.916667 0.005
0.486695 0.958333 0.005
0.486486 1.0 0.005
0.531954 0.00563435 0.005
0.531749 0.0470663 0.005
0.531544 0.0884982 0.005
0.531338 0.12993 0.005
0.531133 0.171362 0.005
0.530928 0.212794 0.005
0.530722 0.254226 0.005
0.530517 0.295658 0.005
0.530312 0.33709 0.005
0.530107 0.378521 0.005
0.529901 0.419953 0.005
0.529696 0.461385 0.005
0.529491 0.502817 0.005
0.529285 0.544249 0.005
0.52908 0.585681 0.005
0.528875 0.627113 0.005
0.528669 0.668545 0.005
0.528464 0.709977 0.005
0.528259 0.751409 0.005
0.528054 0.79284 0.005
0.527848 0.834272 0.005
0.527643 0.875704 0.005
0.527438 0.917136 0.005
0.527232 0.958568 0.005
0.527027 1.0 0.005
0.572289 0.0127465 0.005
0.572093 0.0538821 0.005
0.571896 0.0950177 0.005
0.571699 0.136153 0.005
0.571502 0.177289 0.005
0.571306 0.218424 0.005
0.571109 0.25956 0.005
0.570912 0.300695 0.005
0.570715 0.341831 0.005
0.570519 0.382967 0.005
0.570322 0.424102 0.005
0.570125 0.465238 0.005
0.569928 0.506373 0.005
0.569732 0.547509 0.005
0.569535 0.588644 0.005
0.569338 0.62978 0.005
0.569142 0.670916 0.005
0.568945 0.712051 0.005
0.568748 0.753187 0.005
0.568551 0.794322 0.005
0.568355 0.835458 0.005
0.568158 0.876593 0.005
0.567961 0.917729 0.005
0.567764 0.958864 0.005
0.567568 1.0 0.005
0.612625 0.0198587 0.005
0.612436 0.0606979 0.005
0.612248 0.101537 0.005
0.61206 0.142376 0.005
0.611872 0.183216 0.005
0.611684 0.224055 0.005
0.611496 0.264894 0.005
0.611307 0.305733 0.005
0.611119 0.346572 0.005
0.610931 0.387412 0.005
0.610743 0.428251 0.005
0.610555 0.46909 0.005
0.610366 0.509929 0.005
0.610178 0.550769 0.005
0.60999 0.591608 0.005
0.609802 0.632447 0.005
0.609614 0.673286 0.005
0.609425 0.714125 0.005
0.609237 0.754965 0.005
0.609049 0.795804 0.005
0.608861 0.836643 0.005
0.608673 0.877482 0.005
0.608484 0.918322 0.005
0.608296 0.959161 0.005
0.608108 1.0 0.005
0.65296 0.0269708 0.005
0.65278 0.0675137 0.005
0.652601 0.108057 0.005
0.652421 0.148599 0.005
0.652241 0.189142 0.005
0.652062 0.229685 0.005
0.651882 0.270228 0.005
0.651702 0.310771 0.005
0.651523 0.351314 0.005
0.651343 0.391857 0.005
0.651164 0.4324 0.005
0.650984 0.472943 0.005
0.650804 0.513485 0.005
0.650625 0.554028 0.005
0.650445 0.594571 0.005
0.650265 0.635114 0.005
0.650086 0.675657 0.005
0.649906 0.7162 0.005
0.649726 0.756743 0.005
0.649547 0.797286 0.005
0.649367 0.837828 0.005
0.649188 0.878371 0.005
0.649008 0.918914 0.005
0.648828 0.959457 0.005
0.648649 1.0 0.005
0.693295 0.034083 0.005
0.693124 0.0743295 0.005
0.692953 0.114576 0.005
0.692782 0.154823 0.005
0.692611 0.195069 0.005
0.69244 0.235316 0.005
0.692269 0.275562 0.005
0.692098 0.315809 0.005
0.691926 0.356055 0.005
0.691755 0.396302 0.005
0.691584 0.436548 0.005
[...]
CELL_DATA 888
SCALARS P float 1
LOOKUP_TABLE default
100146.07773603695
100145.72961748464
100205.772632697
100143.33076634654
100205.64514883563
100292.58429309913
100139.21176320734
100202.31461099938
100292.85684322855
100419.21732480219
100133.68447643012
100196.3772903991
100288.02402073609
100420.17142198214
100604.63279754002
100127.06249604186
100188.36138278543
100279.12521717274
100412.85091862475
100606.7222845723
100877.49691384209
100119.65513297301
100178.76930766074
100267.07730660195
100399.07210959261
100595.16180238697
100881.39790961787
101282.05432011458
100111.75427774823
100168.07699149412
100252.72662123662
100380.45646186116
100573.20592454693
100862.33784924855
101288.49588849719
101888.97059675906
100103.62229219456
100156.7200367644
100236.84468776219
100358.46813279709
100543.78673495057
100826.38185915699
101255.48954032332
101897.53135518932
102817.9338488669
100095.48418924301
100145.08056358635
100220.11071813476
100334.39157336426
100509.48226003579
100778.97037659431
101194.92091617934
101836.88430193336
102821.44157386558
104292.1786254366
100087.52446360257
100133.47943392025
100203.09814429938
100309.30727349623
100472.45271202645
100724.68922270784
101117.12368856854
101731.6691590323
102701.73130966644
104252.89587696145
106793.38732101854
100079.88768768651
100122.17461319375
100186.2714015674
100284.0867643625
100434.42375091142
100667.16688697778
101030.26464612778
101601.81700930442
102512.68685260684
103996.47007398558
106539.4853595839
111579.6453695929
100072.68186927533
100111.36445833299
100169.99049456544
100259.40113715253
100396.70795466757
100609.12006944978
100940.33910012445
101461.65285550461
102292.54771256247
103644.69219614708
105943.03843060539
110318.93783555512
122739.01340401938
100065.98326436813
100101.19409521102
100154.52173972155
100235.74519209619
100360.25978037143
100552.47911150676
100851.48249556561
101320.6744202981
102065.22631544709
103266.9240918216
105268.30095263239
108844.30639022944
116484.00263976453
133087.73697474026
100059.84187938529
100091.76344874711
100140.05158782814
100213.46439506108
100325.73460988866
100498.54104697068
100766.38674354675
101184.78140607174
101844.51683846644
102898.32637666918
104617.44424968264
107537.96164556604
112921.72474074205
123372.34912686911
141206.72623080807
100054.28707834019
100083.13564113814
100126.70109860995
100192.78329631442
100293.55337701079
100448.11966175314
100686.68279589494
101057.37188073761
101637.76856217743
102555.16350180242
104024.98427180013
106432.79316535538
110524.32708975284
117766.85319578747
129966.25302930367
147800.75536290568
100049.33281536057
100075.34540291382
100114.5399534128
100173.83274683323
100263.95877336539
100401.67017109379
100613.25024028297
100940.18241540439
101448.41916529794
102243.86559222185
103499.19304852812
105502.67116902581
108747.23671053284
114139.41142290666
122900.88825469065
135977.432078465
153246.10346244712
100044.98242051566
100068.40647948331
100103.59937772594
100156.67266387158
100237.06053073812
100359.39396055958
100546.45955852937
100833.8865152852
101277.61348449784
101965.8552899726
103038.38846175215
104717.66187535775
107355.88273966456
111564.6867401714
118177.69428426673
127997.51224836746
141356.65132834364
157772.64193698746
100041.23295252745
100062.31842918554
100093.8832245505
100141.31293771535
100212.8761638203
100321.3167756114
100486.34100209975
100738.49035553532
101125.18478421446
101720.06974229554
102637.32797732041
104052.75275567907
106231.65341070808
109616.72838747829
114804.02195117378
122420.5826105329
132881.04060889993
146127.02017742608
161539.04756483057
100038.07905974545
100057.07266184723
100085.37746973016
100127.72919667735
100191.35986921229
100287.34977607324
100432.71363117793
100653.61034608209
100990.2499248868
101504.29374031926
102289.74133019884
103487.99200962094
105306.14733596634
108081.11377756465
112260.91240640757
118337.5942730338
126701.58232996601
137461.07822660962
150331.45240616193
164664.88165072125
100035.51683324946
100052.657878867
100078.05896385055
100115.87731213839
100172.42853003928
100257.3337848033
100385.27198403662
100578.64449359463
100871.57787184643
101315.85321030385
101989.35875752302
103007.34636029549
104535.41626011334
106838.90897017112
110268.34618816763
115219.93878512624
122042.57848141968
130903.72555000681
141695.78329834767
154017.36944255664
167245.09707534016
100033.54818184173
100049.06559421674
100071.90278060328
100105.70402085742
100155.978332099
100231.07308256855
100343.64735151322
100512.88784101093
100767.79874123908
101151.98487835545
101730.34937345408
102597.77557296173
103888.94506133356
105817.55329699867
108665.78675276897
112760.6917665739
118412.83726635746
125813.9182607265
134948.2193392577
145570.22832113638
157231.55585244717
169358.3824457389
100032.18670583298
100046.29683482101
100066.89019521516
100097.15830262295
100141.90232413379
100208.36036252965
100307.44935898272
100455.61190799916
100677.5320944693
101010.03430602867
101507.4609868237
102248.53731148322
103344.1319664648
104968.95984011418
107354.56174430788
110775.53102666287
115509.46378882276
121758.6373847018
129567.41515078784
138784.32483042238
149085.02679708085
160018.80536796522
171071.94572759638
100031.4676514547
100044.37182457266
100063.01872534236
100090.20183212281
100130.10289226512
100188.99624158633
100276.29683745165
100406.10656829788
100599.46578258609
100887.55407731893
101316.05943051443
101950.71277094557
102883.59897001735
104259.09721030708
106269.42741252162
109147.6843728134
113142.14200519495
118457.76159241366
125182.82746059206
133238.0521361097
142380.8509507698
152250.7687754056
162421.6767388258
172444.38432561362
100043.34687581343
100060.3169837317
100084.8236866378
100120.50765656249
100172.8063617658
100249.84124672686
100363.71675765827
100532.39470650541
100782.33926330184
101152.10310143774
101696.86096753861
102493.62699558468
103662.57360758682
105364.60788941043
107798.70322189321
111186.29258390557
115729.01562991593
121546.67604918488
128620.80509374599
136777.32497365295
145720.10655212522
155083.03206932955
164479.9624513258
173524.32069972105
100058.87072307344
100081.06187841772
100113.08842589341
100159.66122147601
100227.78734191456
100327.86386818011
100475.24683533006
100692.45077316539
101012.1140227209
101480.74994527
102163.13674879879
103159.85187520487
104606.32593312301
106672.88390574476
109556.16193376396
113449.47863551478
118493.22482433108
124719.36259848437
132018.21379803595
140149.99637255486
148794.59889376798
157601.1696856636
166230.2257590419
174356.80789584276
100079.04125414825
100107.89256482647
100149.50222270821
100209.91475127752
100298.0663281048
100427.1024747032
100616.21648468034
100893.12025208875
101297.17612370128
101883.11668006115
102735.49672211382
103968.72993755485
105728.83884288045
108189.57984072043
111532.41671462252
115908.55564273297
121389.14628374783
127923.76084280614
135331.09523189388
143331.85308488924
151604.0616245302
159825.91991337884
167707.3362482875
174976.1335051953
100105.09549137368
100142.38382311715
100196.1143328903
100273.96817423754
100387.20959995665
100552.22969877372
100792.61780201191
101141.79338872718
101646.18466161929
102377.12756427107
103431.56391207654
104934.78797767201
107039.59457259689
109913.3889745459
113710.34007822121
118529.41474387301
124371.15059842315
131113.55567189737
138524.5104312318
146307.38688907604
154153.64262096258
161779.3287311161
168939.97426464566
175416.52872910598
100138.54623603544
100186.44308644802
100255.38029727331
100355.01286449096
100499.3572969682
100708.53659987211
101011.0060867759
101446.28207610633
102074.71953131267
102978.67035489186
104265.69173980138
106069.56462995456
108542.70143561927
111836.19986820674
116066.54535487745
121275.06161919053
127395.60746249634
134249.03965225111
141571.88963964744
149067.92757511712
156452.2264354914
163482.46488146344
169958.13751736082
175703.26486107396
100181.22407069716
100242.35555385261
100330.20605328344
100456.76712865721
100639.23131610178
100901.88238378243
101278.44778921492
101820.1383888857
102597.03553586175
103701.49751100465
105250.31559966176
107380.69647020221
110236.6647132189
113943.62335472235
118572.98886004691
124107.39648069527
130422.30169783448
137296.85365100967
144453.6527650732
151609.3192666266
158510.74318015034
164955.6991303902
170784.77516241826
175863.6253562039
100235.32134487593
100312.82677769405
100423.98611272604
100583.49607939103
100812.11581806866
101138.6906793026
101606.77453009013
102276.1101016374
103226.0265906424
104558.22961921833
106395.20212833259
108871.39712059595
112114.43024138456
116216.03447466431
121198.52280207844
126988.93828248409
133415.04243468377
140229.73124734798
147156.12840705516
153932.62146503318
160341.56445765827
166219.14845755984
171443.85260618266
175913.09491587014
100303.43419066457
100401.02339285206
100540.63320694861
100740.01658291009
101023.88380953493
101429.32938279856
102007.36228724913
102826.14674509788
103974.07718753202
105559.7637438563
107706.7556939303
110540.1593180945
114163.62865947219
118629.5524962623
123910.34459517106
129883.78067497113
136342.11576938015
143026.3711984925
149670.596797738
156041.04103401717
161957.32937701594
167291.60190490706
171954.35935309212
175875.73415680564
100388.60491741476
100510.60998518694
100684.60259246561
100931.74728409758
101283.6783792252
101783.97857292
102491.22461613161
103482.11650237982
104852.49189970367
106714.520965012
109187.55495359388
112380.65697474692
116367.2769441193
121157.18158222477
126675.29115254324
132758.7215635883
139176.4462697008
145669.2099086284
151991.58972691133
157940.88484264567
163371.7352609637
168190.13872906144
172335.29243974056
175763.62368018346
100494.36133401125
100645.78425727253
100860.952593539
101166.83705664314
101600.65938913394
102212.75003841678
103069.56180866392
104255.32360051868
105870.9165923338
108027.98373448406
110836.06553270503
114382.01321343504
118704.43442153644
123769.91054448241
129460.85096264356
135583.04584375652
141895.22829881677
148146.77540934016
154117.56288659942
159638.47897413396
164597.32150686215
168930.04054560605
172602.80515890897
175596.85357239147
100624.76013794694
100811.3488296255
101077.05313773507
101453.58008999741
101984.10568384043
102726.11904477228
103753.36935322433
105155.95083960907
107036.7475188646
109502.24460689332
112646.50324603295
116529.04069595525
121151.0532589841
126437.68006810255
132235.89439812806
138330.46743554476
144478.89750050014
150448.77885315905
156048.1958548627
161140.70921774683
165646.13974055325
169526.77194696062
172773.90227742968
175395.58872319342
100784.46231402604
101014.1072445298
101340.50006495349
101800.52484202156
102443.78103639625
103334.62734845308
104553.02024543332
106192.6379885565
108354.68127031896
111135.60694417112
114608.90668006157
118802.87803865834
123680.67571858272
129130.26800698323
134970.5808232291
140976.5046017853
146912.54968628768
152568.91567522104
157784.7840860157
162455.24074177473
166528.82787550555
169993.68732075766
172865.61311913963
175196.5304446134
100979.96029676513
101261.15273949034
101659.23764996449
102216.77365309719
102989.67971945637
104048.51147837933
105477.77115313351
107371.89264356083
109826.26378731782
112922.57908662574
116709.25612675071
121181.39636059084
126265.4569781068
131817.52934006555
137637.9838962475
143499.5720879075
149182.04006187618
154502.11327798656
159328.90233007955
163588.23724634649
167255.45044653787
170343.48293324077
172900.55175037138
175045.40999025755
101218.05234509784
101559.97428768036
102041.80244543242
102711.78321294129
103631.76351756325
104877.30599592047
106535.30672617532
108697.6232369346
111449.57305834112
114853.59037031836
118929.90663559323
123639.49137909613
128876.0565794439
134470.46596547306
140212.4717511952
145881.18814874915
151276.63814856426
156243.76174553437
160681.44342535906
164544.24563292076
167832.7307687335
170586.17248489923
172901.48552598577
101505.9729970795
101918.66041304811
102497.14645001743
103295.12017885565
104379.55500657299
105829.40041699173
107731.27926666707
110170.75047837908
113218.94052548382
116915.23129754506
121249.76734540783
126150.88628868939
131483.28563624044
137060.72415719042
142670.34714677927
148103.93092703685
153185.3793217969
157788.14920323435
161840.83531314894
165323.69393835875
168260.19001614474
170722.3706586191
101851.54923752169
102345.77057162103
103034.44306352794
103976.16056308283
105241.76460386012
106911.53990424157
109068.71857655326
111788.8370928593
115124.88354532317
119090.38618252678
123644.85824868623
128686.53562116255
134057.19947601322
139560.90708142178
144988.76585305558
150150.78332351948
154896.75035816221
159128.55204679322
162800.52324700746
165915.63896828177
168516.49418219176
102263.09048767104
102850.13281627255
103662.81893200777
104763.69746047334
106225.86525098135
108128.3504708134
110547.71691922461
113545.68698420556
117153.66161456914
121357.88599954464
126087.9591189218
131216.04534489714
136567.66344941666
141943.2828903699
147144.8320904297
152003.93442657185
156396.27197577048
160249.76090373864
163539.99868319192
166278.6526292301
102749.22382228635
103440.61978394666
104391.01219617203
105665.5585163326
107337.56044187046
109481.89393460809
112164.96823582878
115431.28244341948
119288.1284917833
123693.5518942987
128550.04181129269
133708.26348458926
138983.75519304353
144179.76817522335
149114.43835614304
153641.38227899576
157661.57144149652
161120.88968206375
163998.01881235337
103318.64185130862
104125.85364725445
105226.99783478942
106688.16559298347
108580.30402915837
110971.09696241203
113913.35040397051
117431.1030959592
121506.51981101977
126069.83706771409
130999.04744346718
136129.72214383492
141272.90579671555
146240.54408489467
150868.88018913043
155033.00487215113
158650.38770580385
161663.72035294952
103979.85383565533
104913.82786126655
106177.58441751593
107835.95407214473
109954.82462196217
112591.36185797055
115781.4649757743
119526.69894241223
123782.85785481003
128454.54756962124
133400.24512897595
138444.25999017953
143399.47229034125
148089.9968668098
152369.6259294329
156126.41470297961
159268.59001177695
104740.83540365777
105811.50631414252
107247.84047871818
109110.88123311957
111458.34221208832
114333.79391417136
117753.47307094536
121694.59790809258
126087.12624040301
130813.2308824234
135714.7895331359
140611.53026209102
145321.55732848973
149681.2981168678
153553.0893268774
156810.42577790332
105608.59568107032
106824.3578254892
108440.63417279712
110511.90007800072
113084.58133624979
116185.26309861538
119808.45341076129
123906.26883284043
128384.26254183188
133104.66035079598
137898.24017572528
142583.65497901783
146984.72346828764
150941.07552158379
154294.3282829452
106588.74191358931
107955.77090299058
109756.03831015633
112034.22017233273
114822.29864403939
118127.16690459948
121919.99713591785
126127.50223021222
130633.07942282506
135282.4887586483
139898.90215531053
144299.22409140383
148306.01729992614
151730.55922009624
107684.94939701426
109206.50394806925
111190.41111512309
113668.47672227888
116655.08825492293
120135.14964617742
124055.00028365522
128317.30037494375
132785.16398910154
137290.15430540976
141648.10154130613
145667.47002126218
149134.52156015177
108898.28170639946
110573.9303038614
112736.21735579673
115400.61701541083
118560.79289843346
122178.02161811844
126173.24264594416
130426.224916019
134780.61437786362
139054.65554895607
143047.50753468345
146525.63677117578
110226.65569716058
112051.34107326133
114380.50148084782
117209.8320568157
120509.98899696147
124216.64442628439
128225.29234417678
132392.80031346146
136542.72761226658
140470.5254554417
143926.18805410736
111663.88715990048
113627.11053184466
116104.4624127336
119068.75271333689
122464.9970483834
126201.8682717074
130148.62327341341
134137.18114217036
137961.55543515435
141360.53207713697
113198.9819070171
115283.57408257958
117882.06118364344
120941.09462214274
124377.58567147424
128071.02042121245
131861.51233694854
135545.27479727697
138853.48272607548
114814.94606762729
116995.8829588244
119678.52996771982
122779.75711763048
126185.2786459021
129741.6807979957
133247.8665118957
136431.28688366635
116487.58552802393
118730.41565413385
121447.89225727362
124523.56813022825
127805.95466599213
131096.83665674017
134120.68918179578
118184.08006806472
120442.5766236708
123130.48783705868
126090.90706595978
129123.40550749609
131950.35593875943
119860.6159865066
122073.4370290985
124645.54396153464
127366.42905356985
129953.10449490102
121459.04257399956
123543.93299585885
125879.93253765917
128169.98642138144
122901.22455334212
124742.77096364855
126657.00355177022
124077.08489060891
125496.94002808111
124816.59965859835
SCALARS T float 1
LOOKUP_TABLE default
300.12608624212356
300.1257661080867
300.1780918705848
300.1236697037362
300.1779374526235
300.2541488840556
300.12008322043033
300.1750000765158
300.2542864133093
300.3659085257246
300.1152781093169
300.16979702460975
300.249969887779
300.36651876476543
300.53108479798686
300.1095277957336
300.16278991817006
300.2421046550799
300.359872269761
300.5324221312467
300.7770273663223
300.10310184819434
300.1544191496611
300.23149670527465
300.3475607116775
300.52171241813625
300.7793677540061
301.1468695593115
300.09625424066303
300.14510176951205
300.21889277201046
300.33102041239573
300.5018314490611
300.7612941775591
301.1501411513633
301.7107262098306
300.0892127330682
300.13521867387163
300.20497329706
300.31155341527733
300.47540092009746
300.72822233072515
301.1180628128855
301.7129412990923
302.58794645590945
300.0821721249565
300.1251029149244
300.1903355287708
300.2903007911488
300.44473407529523
300.68506881411145
301.0613767203068
301.65267216455663
302.57911294381057
303.99655252134426
300.0752916283967
300.1150330418255
300.17548139601263
300.26821836112305
300.4117650871242
300.63598816303073
300.98952505115795
301.55245910274135
302.45845560130755
303.9354004756384
306.37946186993946
300.068695539053
300.1052319580863
300.1608150855645
300.24607212199624
300.37802964928085
300.5842547776757
300.90997588337825
301.4306932163506
302.2757045445587
303.6772416453178
306.10108433367986
310.7752036584261
300.06247629736254
300.0958701198431
300.1466477346225
300.22444697167026
300.34468509456093
300.5322987431676
300.82817683184226
301.3005749608393
302.06636763506356
303.3345427536015
305.514421523289
309.6017721809608
320.0183733819097
300.056698784876
300.08707139744087
300.133207569654
300.20376964951157
300.3125626300365
300.48182365098046
300.74783742502655
301.17077158895995
301.85257545889027
302.9717507457193
304.8604293648015
308.2219136733602
315.0176706309801
328.0637577198211
300.05140518480744
300.0789203091263
300.1206526347993
300.18433405717354
300.28222354126603
300.43395236191736
300.6713232295905
301.0465630003959
301.6469098154147
302.6214294633706
304.2341234770001
306.9841193390569
311.92090897738456
320.8028322176902
334.1233315801524
300.04661989994435
300.0714695012666
300.1090839211392
300.1663275167128
300.2540197199698
300.38936936378184
300.6000213980803
300.9308866476925
301.45585756470985
302.29829695615155
303.6679513777928
305.9303921809824
309.7355606062542
316.1827005251651
326.1174525076427
338.9100415954927
300.04235411683294
300.0647471689722
300.0985579245003
300.149855564153
300.22814578421
300.34843835818947
300.53463587386995
300.82514329929484
301.2822310424027
302.0077341793022
303.1693049996124
305.0432490479974
308.0751964702247
313.0001386645049
320.55132395735944
330.7936263214088
342.7795524094145
300.0386099606313
300.05876354654765
300.0890981064004
300.134962470133
300.2046806200157
300.31129972778734
300.4754163790475
300.7297694138522
301.12672518928593
301.7504022850874
302.73582591081083
304.2972193001424
306.7612316178171
310.6543954761722
316.5585942896604
324.7466716790379
334.8524892211927
345.94057743262533
300.0353842580005
300.05351682557324
300.08070463682895