# vtk DataFile Version 2.0
JuliaCFD
ASCII
DATASET UNSTRUCTURED_GRID

POINTS 1900 float
0.0 0.0 0.005
0.0 0.0416667 0.005
0.0 0.0833333 0.005
0.0 0.125 0.005
0.0 0.166667 0.005
0.0 0.208333 0.005
0.0 0.25 0.005
0.0 0.291667 0.005
0.0 0.333333 0.005
0.0 0.375 0.005
0.0 0.416667 0.005
0.0 0.458333 0.005
0.0 0.5 0.005
0.0 0.541667 0.005
0.0 0.583333 0.005
0.0 0.625 0.005
0.0 0.666667 0.005
0.0 0.708333 0.005
0.0 0.75 0.005
0.0 0.791667 0.005
0.0 0.833333 0.005
0.0 0.875 0.005
0.0 0.916667 0.005
0.0 0.958333 0.005
0.0 1.0 0.005
0.0409575 0.0 0.005
0.0409401 0.0416667 0.005
0.0409227 0.0833333 0.005
0.0409054 0.125 0.005
0.040888 0.166667 0.005
0.0408706 0.208333 0.005
0.0408532 0.25 0.005
0.0408359 0.291667 0.005
0.0408185 0.333333 0.005
0.0408011 0.375 0.005
0.0407838 0.416667 0.005
0.0407664 0.458333 0.005
0.040749 0.5 0.005
0.0407316 0.541667 0.005
0.0407143 0.583333 0.005
0.0406969 0.625 0.005
0.0406795 0.666667 0.005
0.0406621 0.708333 0.005
0.0406448 0.75 0.005
0.0406274 0.791667 0.005
0.04061 0.833333 0.005
0.0405927 0.875 0.005
0.0405753 0.916667 0.005
0.0405579 0.958333 0.005
0.0405405 1.0 0.005
0.0819149 0.0 0.005
0.0818802 0.0416667 0.005
0.0818455 0.0833333 0.005
0.0818107 0.125 0.005
0.081776 0.166667 0.005
0.0817412 0.208333 0.005
0.0817065 0.25 0.005
0.0816717 0.291667 0.005
0.081637 0.333333 0.005
0.0816022 0.375 0.005
0.0815675 0.416667 0.005
0.0815328 0.458333 0.005
0.081498 0.5 0.005
0.0814633 0.541667 0.005
0.0814285 0.583333 0.005
0.0813938 0.625 0.005
0.081359 0.666667 0.005
0.0813243 0.708333 0.005
0.0812895 0.75 0.005
0.0812548 0.791667 0.005
0.0812201 0.833333 0.005
0.0811853 0.875 0.005
0.0811506 0.916667 0.005
0.0811158 0.958333 0.005
0.0810811 1.0 0.005
0.122872 0.0 0.005
0.12282 0.0416667 0.005
0.122768 0.0833333 0.005
0.122716 0.125 0.005
0.122664 0.166667 0.005
0.122612 0.208333 0.005
0.12256 0.25 0.005
0.122508 0.291667 0.005
0.122455 0.333333 0.005
0.122403 0.375 0.005
0.122351 0.416667 0.005
0.122299 0.458333 0.005
0.122247 0.5 0.005
0.122195 0.541667 0.005
0.122143 0.583333 0.005
0.122091 0.625 0.005
0.122039 0.666667 0.005
0.121986 0.708333 0.005
0.121934 0.75 0.005
0.121882 0.791667 0.005
0.12183 0.833333 0.005
0.121778 0.875 0.005
0.121726 0.916667 0.005
0.121674 0.958333 0.005
0.121622 1.0 0.005
0.16383 0.0 0.005
0.16376 0.0416667 0.005
0.163691 0.0833333 0.005
0.163621 0.125 0.005
0.163552 0.166667 0.005
0.163482 0.208333 0.005
0.163413 0.25 0.005
0.163343 0.291667 0.005
0.163274 0.333333 0.005
0.163204 0.375 0.005
0.163135 0.416667 0.005
0.163066 0.458333 0.005
0.162996 0.5 0.005
0.162927 0.541667 0.005
0.162857 0.583333 0.005
0.162788 0.625 0.005
0.162718 0.666667 0.005
0.162649 0.708333 0.005
0.162579 0.75 0.005
0.16251 0.791667 0.005
0.16244 0.833333 0.005
0.162371 0.875 0.005
0.162301 0.916667 0.005
0.162232 0.958333 0.005
0.162162 1.0 0.005
0.204787 0.0 0.005
0.2047 0.0416667 0.005
0.204614 0.0833333 0.005
0.204527 0.125 0.005
0.20444 0.166667 0.005
0.204353 0.208333 0.005
0.204266 0.25 0.005
0.204179 0.291667 0.005
0.204092 0.333333 0.005
0.204006 0.375 0.005
0.203919 0.416667 0.005
0.203832 0.458333 0.005
0.203745 0.5 0.005
0.203658 0.541667 0.005
0.203571 0.583333 0.005
0.203484 0.625 0.005
0.203398 0.666667 0.005
0.203311 0.708333 0.005
0.203224 0.75 0.005
0.203137 0.791667 0.005
0.20305 0.833333 0.005
0.202963 0.875 0.005
0.202876 0.916667 0.005
0.20279 0.958333 0.005
0.202703 1.0 0.005
0.245745 0.0 0.005
0.245641 0.0416667 0.005
0.245536 0.0833333 0.005
0.245432 0.125 0.005
0.245328 0.166667 0.005
0.245224 0.208333 0.005
0.245119 0.25 0.005
0.245015 0.291667 0.005
0.244911 0.333333 0.005
0.244807 0.375 0.005
0.244703 0.416667 0.005
0.244598 0.458333 0.005
0.244494 0.5 0.005
0.24439 0.541667 0.005
0.244286 0.583333 0.005
0.244181 0.625 0.005
0.244077 0.666667 0.005
0.243973 0.708333 0.005
0.243869 0.75 0.005
0.243764 0.791667 0.005
0.24366 0.833333 0.005
0.243556 0.875 0.005
0.243452 0.916667 0.005
0.243347 0.958333 0.005
0.243243 1.0 0.005
0.286702 0.0 0.005
0.286581 0.0416667 0.005
0.286459 0.0833333 0.005
0.286337 0.125 0.005
0.286216 0.166667 0.005
0.286094 0.208333 0.005
0.285973 0.25 0.005
0.285851 0.291667 0.005
0.285729 0.333333 0.005
0.285608 0.375 0.005
0.285486 0.416667 0.005
0.285365 0.458333 0.005
0.285243 0.5 0.005
0.285121 0.541667 0.005
0.285 0.583333 0.005
0.284878 0.625 0.005
0.284757 0.666667 0.005
0.284635 0.708333 0.005
0.284513 0.75 0.005
0.284392 0.791667 0.005
0.28427 0.833333 0.005
0.284149 0.875 0.005
0.284027 0.916667 0.005
0.283905 0.958333 0.005
0.283784 1.0 0.005
0.32766 0.0 0.005
0.327521 0.0416667 0.005
0.327382 0.0833333 0.005
0.327243 0.125 0.005
0.327104 0.166667 0.005
0.326965 0.208333 0.005
0.326826 0.25 0.005
0.326687 0.291667 0.005
0.326548 0.333333 0.005
0.326409 0.375 0.005
0.32627 0.416667 0.005
0.326131 0.458333 0.005
0.325992 0.5 0.005
0.325853 0.541667 0.005
0.325714 0.583333 0.005
0.325575 0.625 0.005
0.325436 0.666667 0.005
0.325297 0.708333 0.005
0.325158 0.75 0.005
0.325019 0.791667 0.005
0.32488 0.833333 0.005
0.324741 0.875 0.005
0.324602 0.916667 0.005
0.324463 0.958333 0.005
0.324324 1.0 0.005
0.368617 0.0 0.005
0.368461 0.0416667 0.005
0.368305 0.0833333 0.005
0.368148 0.125 0.005
0.367992 0.166667 0.005
0.367835 0.208333 0.005
0.367679 0.25 0.005
0.367523 0.291667 0.005
0.367366 0.333333 0.005
0.36721 0.375 0.005
0.367054 0.416667 0.005
0.366897 0.458333 0.005
0.366741 0.5 0.005
0.366585 0.541667 0.005
0.366428 0.583333 0.005
0.366272 0.625 0.005
0.366116 0.666667 0.005
0.365959 0.708333 0.005
0.365803 0.75 0.005
0.365647 0.791667 0.005
0.36549 0.833333 0.005
0.365334 0.875 0.005
0.365178 0.916667 0.005
0.365021 0.958333 0.005
0.364865 1.0 0.005
0.409575 0.0 0.005
0.409401 0.0416667 0.005
0.409227 0.0833333 0.005
0.409054 0.125 0.005
0.40888 0.166667 0.005
0.408706 0.208333 0.005
0.408532 0.25 0.005
0.408359 0.291667 0.005
0.408185 0.333333 0.005
0.408011 0.375 0.005
0.407838 0.416667 0.005
0.407664 0.458333 0.005
0.40749 0.5 0.005
0.407316 0.541667 0.005
0.407143 0.583333 0.005
0.406969 0.625 0.005
0.406795 0.666667 0.005
0.406621 0.708333 0.005
0.406448 0.75 0.005
0.406274 0.791667 0.005
0.4061 0.833333 0.005
0.405927 0.875 0.005
0.405753 0.916667 0.005
0.405579 0.958333 0.005
0.405405 1.0 0.005
0.450532 0.0 0.005
0.450341 0.0416667 0.005
0.45015 0.0833333 0.005
0.449959 0.125 0.005
0.449768 0.166667 0.005
0.449577 0.208333 0.005
0.449386 0.25 0.005
0.449195 0.291667 0.005
0.449003 0.333333 0.005
0.448812 0.375 0.005
0.448621 0.416667 0.005
0.44843 0.458333 0.005
0.448239 0.5 0.005
0.448048 0.541667 0.005
0.447857 0.583333 0.005
0.447666 0.625 0.005
0.447475 0.666667 0.005
0.447284 0.708333 0.005
0.447093 0.75 0.005
0.446901 0.791667 0.005
0.44671 0.833333 0.005
0.446519 0.875 0.005
0.446328 0.916667 0.005
0.446137 0.958333 0.005
0.445946 1.0 0.005
0.49149 0.0 0.005
0.491281 0.0416667 0.005
0.491073 0.0833333 0.005
0.490864 0.125 0.005
0.490656 0.166667 0.005
0.490447 0.208333 0.005
0.490239 0.25 0.005
0.49003 0.291667 0.005
0.489822 0.333333 0.005
0.489613 0.375 0.005
0.489405 0.416667 0.005
0.489197 0.458333 0.005
0.488988 0.5 0.005
0.48878 0.541667 0.005
0.488571 0.583333 0.005
0.488363 0.625 0.005
0.488154 0.666667 0.005
0.487946 0.708333 0.005
0.487737 0.75 0.005
0.487529 0.791667 0.005
0.48732 0.833333 0.005
0.487112 0.875 0.005
0.486903 0.916667 0.005
0.486695 0.958333 0.005
0.486486 1.0 0.005
0.531954 0.00563435 0.005
0.531749 0.0470663 0.005
0.531544 0.0884982 0.005
0.531338 0.12993 0.005
0.531133 0.171362 0.005
0.530928 0.212794 0.005
0.530722 0.254226 0.005
0.530517 0.295658 0.005
0.530312 0.33709 0.005
0.530107 0.378521 0.005
0.529901 0.419953 0.005
0.529696 0.461385 0.005
0.529491 0.502817 0.005
0.529285 0.544249 0.005
0.52908 0.585681 0.005
0.528875 0.627113 0.005
0.528669 0.668545 0.005
0.528464 0.709977 0.005
0.528259 0.751409 0.005
0.528054 0.79284 0.005
0.527848 0.834272 0.005
0.527643 0.875704 0.005
0.527438 0.917136 0.005
0.527232 0.958568 0.005
0.527027 1.0 0.005
0.572289 0.0127465 0.005
0.572093 0.0538821 0.005
0.571896 0.0950177 0.005
0.571699 0.136153 0.005
0.571502 0.177289 0.005
0.571306 0.218424 0.005
0.571109 0.25956 0.005
0.570912 0.300695 0.005
0.570715 0.341831 0.005
0.570519 0.382967 0.005
0.570322 0.424102 0.005
0.570125 0.465238 0.005
0.569928 0.506373 0.005
0.569732 0.547509 0.005
0.569535 0.588644 0.005
0.569338 0.62978 0.005
0.569142 0.670916 0.005
0.568945 0.712051 0.005
0.568748 0.753187 0.005
0.568551 0.794322 0.005
0.568355 0.835458 0.005
0.568158 0.876593 0.005
0.567961 0.917729 0.005
0.567764 0.958864 0.005
0.567568 1.0 0.005
0.612625 0.0198587 0.005
0.612436 0.0606979 0.005
0.612248 0.101537 0.005
0.61206 0.142376 0.005
0.611872 0.183216 0.005
0.611684 0.224055 0.005
0.611496 0.264894 0.005
0.611307 0.305733 0.005
0.611119 0.346572 0.005
0.610931 0.387412 0.005
0.610743 0.428251 0.005
0.610555 0.46909 0.005
0.610366 0.509929 0.005
0.610178 0.550769 0.005
0.60999 0.591608 0.005
0.609802 0.632447 0.005
0.609614 0.673286 0.005
0.609425 0.714125 0.005
0.609237 0.754965 0.005
0.609049 0.795804 0.005
0.608861 0.836643 0.005
0.608673 0.877482 0.005
0.608484 0.918322 0.005
0.608296 0.959161 0.005
0.608108 1.0 0.005
0.65296 0.0269708 0.005
0.65278 0.0675137 0.005
0.652601 0.108057 0.005
0.652421 0.148599 0.005
0.652241 0.189142 0.005
0.652062 0.229685 0.005
0.651882 0.270228 0.005
0.651702 0.310771 0.005
0.651523 0.351314 0.005
0.651343 0.391857 0.005
0.651164 0.4324 0.005
0.650984 0.472943 0.005
0.650804 0.513485 0.005
0.650625 0.554028 0.005
0.650445 0.594571 0.005
0.650265 0.635114 0.005
0.650086 0.675657 0.005
0.649906 0.7162 0.005
0.649726 0.756743 0.005
0.649547 0.797286 0.005
0.649367 0.837828 0.005
0.649188 0.878371 0.005
0.649008 0.918914 0.005
0.648828 0.959457 0.005
0.648649 1.0 0.005
0.693295 0.034083 0.005
0.693124 0.0743295 0.005
0.692953 0.114576 0.005
0.692782 0.154823 0.005
0.692611 0.195069 0.005
0.69244 0.235316 0.005
0.692269 0.275562 0.005
0.692098 0.315809 0.005
0.691926 0.356055 0.005
0.691755 0.396302 0.005
0.691584 0.436548 0.005
[...]
CELL_DATA 888
SCALARS P float 1
LOOKUP_TABLE default
100128.38613140424
100128.05020381868
100181.54417067507
100125.75160469576
100181.41643589314
100259.8706695874
100121.80903912219
100178.21733554304
100260.12047841992
100375.51307007768
100116.52481739646
100172.52191433741
100255.45933071752
100376.40780120218
100546.71771975624
100110.20350387997
100164.84237625999
100246.8921503873
100369.31276153834
100548.6901014266
100801.23566470471
100103.14534713348
100155.66707707703
100235.30996644874
100355.9905686069
100537.42930566412
100804.92921944155
101182.14315640788
100095.6330712044
100145.45851163813
100221.537064997
100338.02180912734
100516.1072339422
100786.27450331386
101188.23638840701
101758.62087026687
100087.91989803353
100134.63911862212
100206.3246761681
100316.83613303729
100487.59161418084
100751.20818757039
101155.79175843227
101766.6157653387
102648.47503124659
100080.22190511144
100123.57814245434
100190.33274861604
100293.68704337854
100454.40632257756
100705.0683205587
101096.48968194562
101706.77411652778
102651.09598313013
104072.53669635118
100072.71501200645
100112.58402001711
100174.11637994708
100269.62659182184
100418.66419797647
100652.35527413343
101020.4978792552
101603.3927481716
102532.59841070858
104031.9635201821
106509.2503304175
100065.53569521019
100101.90290663521
100158.1226679704
100245.49997755082
100382.04867645199
100596.62482162753
100935.84742325786
101476.1278037325
102346.26036125756
103777.4925329606
106253.87419705032
111211.43912376254
100058.78441648546
100091.72208168688
100142.69540531021
100221.95410605689
100345.83463868345
100540.53120111443
100848.42224115117
101339.08831727161
102129.8593813537
103429.7888725575
105660.85998933035
109950.99147861813
122254.22506424318
100052.53047038881
100082.17640298195
100128.08591049314
100199.46163269029
100310.94280798997
100485.95091804734
100762.26623425953
101201.60379114593
101906.96924773035
103057.44845486077
104992.35972908368
108482.94446311366
116012.21737049874
132472.73817080972
100046.8174908667
100073.35636325265
100114.46687739396
100178.34789740486
100277.99857721635
100434.13457225998
100679.99558421156
101069.4422188454
101691.13692872607
102695.12340784528
104349.36899833776
107186.21193580587
112463.11459726171
122779.04237519801
140453.17208470067
100041.6690382255
100065.31648818843
100101.94684565472
100158.8192912985
100247.39621699371
100385.85573346744
100603.17817879935
100945.89750861193
101489.52878533924
102358.73449831805
103765.71356590133
106092.29344882577
110080.22193759323
117192.79883605338
129236.38554189945
146898.3276155216
100037.09379482787
100058.08370363439
100090.58416875268
100140.99032647675
100219.35474191417
100341.5348035513
100532.64081318284
100832.62288855691
101305.44448837414
102054.47147740981
103249.23109051347
105174.31305786218
108318.72861501772
113584.9054964555
122193.81858148306
135096.56575872196
152183.43206586706
100033.0902984249
100051.66469435391
100080.39985658949
100124.9063126243
100193.96299433734
100301.34292924292
100468.70932688323
100730.22414846475
101139.92234262978
101783.58292427118
102797.9484681353
104401.87155579063
106943.63663358608
111030.47596397626
117494.17192647797
127140.32690814232
140310.33538191038
156537.7313595209
100029.65122369489
100046.05262095302
100071.38856625652
100110.56406008394
100171.21997221693
100265.27957597376
100411.37621696359
100638.65201604713
100992.71184704182
101544.87616605582
102406.41780344788
103749.64075169024
105835.94950781287
109103.36638724801
114145.1097153513
121589.32498008193
131856.84060541738
144900.75461460094
160119.47716190567
100026.76715620451
100041.23305892682
100063.52799021361
100097.92752876451
100151.06354010827
100233.2329882772
100360.42829357754
100557.47680081829
100862.86298685937
101336.03643693218
102068.21823227356
103197.44305071207
104926.95820890728
107588.82113160707
111627.43312438396
117534.30875438121
125703.82801466889
136253.0333715274
148910.66918710351
163047.95316768944
100024.43031246662
100037.18930468864
100056.78742693034
100086.94207617566
100133.3960173922
100205.0239735537
100315.53239896956
100486.05795707974
100749.09032948769
101154.3117500375
101776.96666055848
102729.0784040542
104172.47831040047
106367.58071980675
109660.70905814334
114446.17946008894
121074.82355154645
129720.74054419943
140287.22553035207
152387.5421479919
165417.9841132114
100022.63869781567
100033.90768405434
100051.13493386105
100077.5449106222
100118.10064163838
100180.43919173056
100276.2958728297
100423.65803385165
100649.97933986135
100996.876945615
101526.74464490036
102331.38078902737
103541.80896214004
105366.81139768753
108083.98539181291
112017.40745201043
117477.79714975526
124661.3959405525
133561.43287219273
143944.73203557194
155378.33414379178
167308.295242392
100021.40160531204
100031.38388812011
100046.54496641355
100069.67607458016
100105.0586212105
100159.25561891326
100242.30746006676
100369.52066711923
100564.11250721967
100861.02757557841
101312.23141848968
101993.5115199609
103012.20864300609
104538.20685302225
106798.22215810129
110063.0783711159
114608.99331424714
120640.78350307184
128209.85078937822
137175.49068140867
147226.58545393543
157928.17363959033
168786.32237569257
100020.74882963824
100029.63199458268
100043.00782369025
100063.28841338262
100094.16119587372
100141.25951202541
100213.16744810178
100322.91172524905
100490.14631055926
100744.27506517072
101128.73821677986
101706.47680563007
102566.19196284516
103847.56046769921
105737.8779474684
108465.89776930015
112277.27932212138
117377.6712463421
123860.41346755256
131655.43695547638
140532.19673299487
150143.92420144376
160080.14518956392
169911.1202079511
100028.70006888358
100040.54345168776
100058.36136058944
100085.3246890005
100126.26282279771
100188.51027940269
100283.15474252043
100426.84870349702
100644.38039945975
100972.17957260266
101462.77687432569
102189.9546971444
103269.3491797334
104856.93870930171
107146.98175152073
110357.34351590458
114688.72597384645
120264.00106228181
127072.1830202281
134950.15920212795
143614.591597698
152713.10332106875
161874.82219091986
170732.1084380097
100039.22550072263
100054.92092424398
100078.50823616466
100114.12186535928
100168.02413937099
100249.65133535373
100373.12376804018
100559.37527274902
100839.04109844408
101256.13337361132
101872.35356847453
102783.93241755827
104121.44220133292
106050.27975594456
108762.81119233182
112450.06702742404
117253.6157667961
123210.993563984
130222.17259168855
138059.56928557152
146416.15022944252
154954.51243301583
163349.84760946577
171295.42633851565
100053.07473735527
100073.74287381512
100104.76157703037
100151.47114430368
100221.90044414102
100328.02942866768
100487.56149207562
100726.32004278639
101081.30454245768
101604.32711121775
102375.79801752827
103505.39755262135
105134.13249133805
107431.00203097721
110574.11061019599
114714.14876170033
119925.86128659782
126166.83901457734
133267.1894957897
140960.53578704144
148937.86532063788
156890.248925752
164541.47258628596
171637.1007798335
100071.18016555802
100098.21460658342
100138.72107567353
100199.5246751154
100290.79100916449
100427.50768053278
100631.4848451522
100933.91242899947
101378.45238172116
102032.50530004036
102988.44287486911
104366.54980305594
106314.5594667941
108995.70597697364
112562.1954871237
117114.67697544614
122659.83098744709
129085.89468081531
136173.43353632686
143638.95658587193
151186.4621694023
158543.97213867775
165480.31385295733
171793.45496967735
100094.6887789485
100129.802264425
100182.30834253108
100260.82743494243
100378.05492278213
100552.4387842274
100810.33271689968
101188.63726406693
101743.98391268059
102554.34123804347
103722.33375301684
105376.52758007793
107664.57147205177
110734.43287620369
114702.52242952301
119614.33094850728
125412.3711916938
131929.55928953103
138915.8534414316
146087.95786469275
153172.76094204193
159938.97181376137
166198.87496002467
171792.80468798662
100124.99443719897
100170.26703160378
100237.79926441694
100338.34041175782
100487.50738620781
100707.60495585404
101029.89134317728
101502.06155050169
102190.01724959344
103181.31504311868
104587.48570415523
106540.58470545846
109180.59052435393
112631.3076300671
116966.37419955185
122175.2247623159
128144.25808699387
134666.03192298353
141476.8091812895
148305.5814649758
154910.08274782743
161098.37335697404
166723.27964955778
171666.03768606327
100163.77095530125
100221.69622898726
100307.84998898247
100435.44870421395
100623.38979653806
100898.19188919103
101300.09469229198
101884.8738050978
102727.22476829418
103923.63415198195
105591.20557339698
107859.66808235581
110853.77483964009
114665.67279815354
119322.48820729903
124760.66054634456
130820.82648349015
137270.09924389762
143845.0415479491
150295.61140649256
156413.83703857134
162045.75686436472
167081.50825654587
171433.57961095055
100213.00280948731
100286.53185328297
100395.51459949306
100555.95541124667
100790.37455674293
101132.75049822118
101630.33811962888
102346.86133839496
103365.60197214985
104789.69413200734
106737.49200367852
109330.23267419507
112670.39038315277
116813.18342864726
121738.57472311072
127336.13725748334
133412.45177910433
139723.03898747402
146014.75710740252
152064.4093362777
157700.39692049866
162804.20999016816
167297.6330910218
171125.4583759923
100275.015251382
100367.59523489712
100504.25760608475
100704.1106455674
100995.86131640943
101419.55334958568
102029.53265137374
102897.54125213853
104113.9441718967
105785.4203181027
108026.68835601382
110944.28045880298
114612.61904830475
119047.01925170426
124182.66444907784
129870.50803448852
135894.75825701168
142010.45342627942
147984.09399098987
153622.3444554573
158788.05075187606
163396.15036691126
167396.95152750725
170761.48597364192
100352.50143790682
100468.10996065359
100637.99482935751
100886.38197215887
101247.16749834552
101766.6697908175
102506.57500588866
103545.7190836789
104979.34242837419
106913.90471358212
109455.32120524437
112689.75161751297
116659.34052692392
121339.08034566352
126624.16902623077
132335.7985991958
138248.2905544773
144124.7115346665
149755.71789265747
154980.62414399782
159694.934771541
163843.3910154639
167403.48311528235
170371.1012981644
100448.55306121691
100591.75499485683
100802.46577061898
101109.27958471484
101551.58774242207
102182.32574738596
103069.99278902731
104299.0028839779
105966.69355568141
108175.08034374918
111016.10512571374
114550.91044542656
118787.08270122121
123661.02624565556
129034.66835496765
134709.2101472728
140457.57848874613
146060.1260079908
151334.52194424826
156152.01529710926
160439.9263130842
164169.51558021858
167343.84691912393
169986.10810933818
100566.71827478148
100743.74216220161
101003.53226000172
101379.4221199525
101916.6899672545
102674.63203115646
103727.57766952219
105163.4554580893
107078.36616464485
109565.47823826098
112698.17298860973
116509.1016303661
120970.82327751849
125985.22477648294
131387.88756382186
136970.56827518294
142512.62816892104
147815.83262587094
152727.9691354628
157151.30851720308
161041.9991591562
164397.66295443647
167246.60710552346
169656.08852982623
100711.91856083611
100929.46680410817
101247.25427656609
101703.76785002784
102350.08515115398
103251.26224689354
104485.97451832188
106143.13050051092
108313.89926035434
111078.36519671544
114487.34512916583
118543.30238788549
123185.1064881131
128285.0712955336
133661.35323247276
139103.49535712687
144405.14498536533
149393.33439804093
153945.10501597426
157993.28866570795
161521.22692620096
164552.17347958585
167147.3705785341
169439.07531217823
100889.27746994157
101154.56918044927
101540.06894213709
102089.43343142432
102859.19658085468
103919.12360398057
105350.32701405781
107239.74539409237
109669.84283137055
112703.65251752631
116366.71043226024
120630.53071534987
125404.0233354511
130536.11006182543
135834.89098148508
141095.701596752
146131.31144760633
150795.83734140702
154995.72718551048
158692.74208986154
161896.10439877
164656.01702345363
167080.66772946433
101104.19976555502
101425.07606955645
101888.6328387657
102543.48606445186
103450.92573477943
104684.00884910364
106323.94962101191
108452.45266121974
111139.67518346848
114428.2986981192
118316.97074922119
122747.72955440808
127602.93559843214
132715.64573191557
137891.34523119408
142937.12362688503
147688.3150247157
152026.86183058558
155888.81803231698
159262.0628171584
162179.22639451953
164721.70018979002
101362.47329098597
101747.28475723304
102299.6558438788
103072.69480022497
104131.36285574717
105550.22987525054
107407.91189970872
109777.6576592054
112713.91253465298
116236.61013337584
120317.1206342545
124870.3447838246
129757.67232724489
134803.1222469868
139815.63052672063
144619.35589748196
149074.26627449525
153090.57868120013
156630.043972459
159703.57317713398
162361.46744192182
101670.16852421478
102127.5928476648
102779.6833822706
103683.22896744969
104905.47776965144
106520.29759290419
108600.89881415208
111208.83443240794
114379.88814226509
118110.1040208464
122344.26553601056
126973.79825080905
131845.20022507544
136778.97329039712
141593.98289285036
146134.60776224462
150286.00572893128
153984.35953668717
157212.47587309917
159988.54410839977
102033.49993206529
102572.31984788085
103334.83750583153
104380.38024656656
105776.74936825428
107594.65816800947
109898.96865587833
112736.67104566314
116122.77055432348
120028.66317240156
124375.13309872578
129034.19086011189
133843.11301699138
138624.7180662554
143212.8512908675
147472.61849087628
151314.24219679224
154691.28460652818
157588.14295180715
102458.62736472728
103087.48341125943
103970.54445555637
105168.26606616976
106746.86337721317
108771.35549352353
111295.38063676535
114348.63571894627
117924.59645908656
121970.3807271362
126385.01900297968
131026.89347926667
135728.91589456753
140321.71459763448
144655.7298968934
148616.84896651414
152131.1356494895
155147.15343466584
102951.47051711055
103678.52970690763
104691.26600109677
106049.4422598553
107815.45200978311
110045.87317439535
112780.37038817428
116029.73968398316
119764.84306248826
123910.44813574199
128348.26451967639
132926.26242354896
137478.73512383652
141847.14602634724
145898.18473563239
149530.06995398013
152657.46222291375
103517.45927358534
104350.06185176027
105500.11688495248
107024.6187607136
108979.57993453692
111410.64264998065
114341.24662628275
117761.71061751136
121620.76720086417
125823.60578575882
130236.94207975658
134704.2971224829
139064.24134539903
143168.861524547
146892.64574526643
150116.93466160123
104161.2412422607
105105.54475909735
106398.60080042706
108092.37478567063
110233.98805621569
112855.34663975886
115962.00779666798
119523.16882291461
123466.60379219285
127679.88848337631
132019.49097167526
136327.40054372064
140446.31244033467
144230.36698397368
147531.1503332475
104886.40676700039
105946.93958775242
107386.27229593824
109248.72518934603
111569.98075264576
114366.01934681286
117623.17898574074
121289.17545210477
125272.63122870815
129446.28701364528
133659.1797939732
137750.3840026315
141559.75208392908
144911.23158569654
105695.16579431813
106874.39246667984
108460.12346965949
110486.59299866657
112975.49554412441
115925.00465470487
119300.86323159418
123030.34068518004
127004.20331152581
131081.90707304172
135104.55494812754
138901.07641613233
142273.52294151083
106587.93073319078
107885.7761548979
109614.67326013211
111795.97131257202
114434.80782486248
117510.15355852313
120966.48566280468
124711.33157891828
128617.70823821014
132531.86503080724
136276.84131639168
139638.2676226794
107563.03921930531
108976.29434226142
110840.81859031855
113162.28155185374
115927.36513212169
119093.96418366767
122584.9567012206
126287.48100608273
130055.40300357805
133711.41152785154
137028.2943860794
108616.14917830519
110138.00136670655
112125.73914900773
114566.78798517771
117427.02825643445
120641.77915321341
124111.0118901998
127698.70791150173
131229.29593940917
134468.0908424466
109739.85057705991
111359.03878679342
113451.85057341348
115984.64020616544
118900.11599524257
122108.5248182655
125483.38517329103
128854.08259530908
131982.10570012763
110922.84986414696
112622.84626378809
114795.66161073574
117383.27431465758
120302.00676389021
123432.83217737226
126610.22746537949
129595.63920410252
112149.14842706232
113906.94955608825
116125.67457020945
118719.4739314933
121572.07334071954
124522.85082000669
127333.87152565493
113396.9706307132
115181.12288385231
117400.22114493576
119933.47755375804
122620.02939049236
125223.21126561573
114636.79133820314
116404.43826986417
118560.60408883529
120936.47637059345
123293.39589361471
115828.43373119248
117519.98323731271
119520.64122759513
121581.36216235385
116915.93988756144
118443.6837778913
120137.53823176117
117816.5674082369
119036.88735105358
118394.8624848971
SCALARS T float 1
LOOKUP_TABLE default
300.1108136380207
300.11050582744133
300.15712696030056
300.1084988143136
300.1569759791024
300.22575321859597
300.1050684759375
300.1541578571139
300.2258783948063
300.32781643254305
300.10047781701957
300.1491714205522
300.22172165925446
300.32838978364487
300.48033520208105
300.09499220782754
300.14246408672994
300.2141582744036
300.3219608291726
300.4815996747548
300.7097404689587
300.0888731127042
300.1344635750843
300.2039710648113
300.3100740653068
300.4711935009815
300.7119572860061
301.05795514191436
300.08236633098954
300.12557478087587
300.1918866356689
300.2941286716861
300.45191902372954
300.6943206337869
301.06103536121253
301.5935191844594
300.07569151344586
300.11616672238273
300.1785667879278
300.275394647097
300.42633839049404
300.6621302757435
301.0296092057619
301.59546114480906
302.43379431314776
300.06903558033866
300.10656091178294
300.16459114280025
300.2549841372299
300.3967135223541
300.6202059337834
300.9742297865653
301.5362040487751
302.4246157508823
303.7944697867831
300.06255023055337
300.0970248543012
300.15044500194443
300.233826523761
300.3649334429866
300.57261932791926
300.9041785111418
301.4379653119467
302.30558710084256
303.7329929279322
306.1162042172568
300.05635271086396
300.08777104743916
300.13651700528396
300.2126636161692
300.33249393021197
300.52257418106376
300.8267891537729
301.3188645984034
302.12586109582685
303.47751807167214
305.8378220398783
310.4367433911181
300.0505289301311
300.07896026938494
300.12310392400275
300.1920584289492
300.30051724722153
300.47244059325516
300.7473992298898
301.1918855932108
301.9204873698221
303.13945830048453
305.2555375857876
309.26416127317077
319.59512964362557
300.0451377763687
300.07070749014764
300.11042084636034
300.1724179810141
300.2698038360667
300.4238715319499
300.6696292837434
301.06552760903696
301.7112562291837
302.7825163235505
304.6084837079223
307.890855365968
314.5952153898558
327.55351538045295
300.04021597190325
300.06308910967056
300.09861389193657
300.1540185246234
300.24088819975424
300.3779472969772
300.595773211876
300.94494182983595
301.5105028363677
302.43875261678363
303.9905815149511
306.66273442649737
311.5060789135318
320.2892003765956
333.5232178368807
300.03578296553854
300.0561504204413
300.08777330035446
300.13703167971613
300.21409889480344
300.3353164966335
300.52716036792896
300.8329671597274
301.32453582468145
302.12254533737934
303.4336020952453
305.6204259149684
309.33251049466406
315.6745401303392
325.50731912114753
338.21548167030704
300.0318454580049
300.0499129747654
300.0779459172448
300.12154902650207
300.1896101950917
300.2963125797419
300.4644479415959
300.73092854537606
301.15603792274686
301.8390424975415
302.9445025083714
304.74561254190985
307.68635392599447
312.50373078208844
319.94177109953273
330.0812954457695
341.98511082583224
300.0284015059066
300.04438102148487
300.06914655795975
300.10760248871367
300.16748332734466
300.2610502738524
300.4078474191987
300.63920339856065
301.0056085095192
301.5887428082073
302.5206355892281
304.0122842895635
306.38791489612214
310.17371816597074
315.95824800163604
324.028303913796
334.03174856591085
345.04026521793463
300.02544421890616
300.0395473440809