# vtk DataFile Version 2.0
JuliaCFD
ASCII
DATASET UNSTRUCTURED_GRID

POINTS 1900 float
0.0 0.0 0.005
0.0 0.0416667 0.005
0.0 0.0833333 0.005
0.0 0.125 0.005
0.0 0.166667 0.005
0.0 0.208333 0.005
0.0 0.25 0.005
0.0 0.291667 0.005
0.0 0.333333 0.005
0.0 0.375 0.005
0.0 0.416667 0.005
0.0 0.458333 0.005
0.0 0.5 0.005
0.0 0.541667 0.005
0.0 0.583333 0.005
0.0 0.625 0.005
0.0 0.666667 0.005
0.0 0.708333 0.005
0.0 0.75 0.005
0.0 0.791667 0.005
0.0 0.833333 0.005
0.0 0.875 0.005
0.0 0.916667 0.005
0.0 0.958333 0.005
0.0 1.0 0.005
0.0409575 0.0 0.005
0.0409401 0.0416667 0.005
0.0409227 0.0833333 0.005
0.0409054 0.125 0.005
0.040888 0.166667 0.005
0.0408706 0.208333 0.005
0.0408532 0.25 0.005
0.0408359 0.291667 0.005
0.0408185 0.333333 0.005
0.0408011 0.375 0.005
0.0407838 0.416667 0.005
0.0407664 0.458333 0.005
0.040749 0.5 0.005
0.0407316 0.541667 0.005
0.0407143 0.583333 0.005
0.0406969 0.625 0.005
0.0406795 0.666667 0.005
0.0406621 0.708333 0.005
0.0406448 0.75 0.005
0.0406274 0.791667 0.005
0.04061 0.833333 0.005
0.0405927 0.875 0.005
0.0405753 0.916667 0.005
0.0405579 0.958333 0.005
0.0405405 1.0 0.005
0.0819149 0.0 0.005
0.0818802 0.0416667 0.005
0.0818455 0.0833333 0.005
0.0818107 0.125 0.005
0.081776 0.166667 0.005
0.0817412 0.208333 0.005
0.0817065 0.25 0.005
0.0816717 0.291667 0.005
0.081637 0.333333 0.005
0.0816022 0.375 0.005
0.0815675 0.416667 0.005
0.0815328 0.458333 0.005
0.081498 0.5 0.005
0.0814633 0.541667 0.005
0.0814285 0.583333 0.005
0.0813938 0.625 0.005
0.081359 0.666667 0.005
0.0813243 0.708333 0.005
0.0812895 0.75 0.005
0.0812548 0.791667 0.005
0.0812201 0.833333 0.005
0.0811853 0.875 0.005
0.0811506 0.916667 0.005
0.0811158 0.958333 0.005
0.0810811 1.0 0.005
0.122872 0.0 0.005
0.12282 0.0416667 0.005
0.122768 0.0833333 0.005
0.122716 0.125 0.005
0.122664 0.166667 0.005
0.122612 0.208333 0.005
0.12256 0.25 0.005
0.122508 0.291667 0.005
0.122455 0.333333 0.005
0.122403 0.375 0.005
0.122351 0.416667 0.005
0.122299 0.458333 0.005
0.122247 0.5 0.005
0.122195 0.541667 0.005
0.122143 0.583333 0.005
0.122091 0.625 0.005
0.122039 0.666667 0.005
0.121986 0.708333 0.005
0.121934 0.75 0.005
0.121882 0.791667 0.005
0.12183 0.833333 0.005
0.121778 0.875 0.005
0.121726 0.916667 0.005
0.121674 0.958333 0.005
0.121622 1.0 0.005
0.16383 0.0 0.005
0.16376 0.0416667 0.005
0.163691 0.0833333 0.005
0.163621 0.125 0.005
0.163552 0.166667 0.005
0.163482 0.208333 0.005
0.163413 0.25 0.005
0.163343 0.291667 0.005
0.163274 0.333333 0.005
0.163204 0.375 0.005
0.163135 0.416667 0.005
0.163066 0.458333 0.005
0.162996 0.5 0.005
0.162927 0.541667 0.005
0.162857 0.583333 0.005
0.162788 0.625 0.005
0.162718 0.666667 0.005
0.162649 0.708333 0.005
0.162579 0.75 0.005
0.16251 0.791667 0.005
0.16244 0.833333 0.005
0.162371 0.875 0.005
0.162301 0.916667 0.005
0.162232 0.958333 0.005
0.162162 1.0 0.005
0.204787 0.0 0.005
0.2047 0.0416667 0.005
0.204614 0.0833333 0.005
0.204527 0.125 0.005
0.20444 0.166667 0.005
0.204353 0.208333 0.005
0.204266 0.25 0.005
0.204179 0.291667 0.005
0.204092 0.333333 0.005
0.204006 0.375 0.005
0.203919 0.416667 0.005
0.203832 0.458333 0.005
0.203745 0.5 0.005
0.203658 0.541667 0.005
0.203571 0.583333 0.005
0.203484 0.625 0.005
0.203398 0.666667 0.005
0.203311 0.708333 0.005
0.203224 0.75 0.005
0.203137 0.791667 0.005
0.20305 0.833333 0.005
0.202963 0.875 0.005
0.202876 0.916667 0.005
0.20279 0.958333 0.005
0.202703 1.0 0.005
0.245745 0.0 0.005
0.245641 0.0416667 0.005
0.245536 0.0833333 0.005
0.245432 0.125 0.005
0.245328 0.166667 0.005
0.245224 0.208333 0.005
0.245119 0.25 0.005
0.245015 0.291667 0.005
0.244911 0.333333 0.005
0.244807 0.375 0.005
0.244703 0.416667 0.005
0.244598 0.458333 0.005
0.244494 0.5 0.005
0.24439 0.541667 0.005
0.244286 0.583333 0.005
0.244181 0.625 0.005
0.244077 0.666667 0.005
0.243973 0.708333 0.005
0.243869 0.75 0.005
0.243764 0.791667 0.005
0.24366 0.833333 0.005
0.243556 0.875 0.005
0.243452 0.916667 0.005
0.243347 0.958333 0.005
0.243243 1.0 0.005
0.286702 0.0 0.005
0.286581 0.0416667 0.005
0.286459 0.0833333 0.005
0.286337 0.125 0.005
0.286216 0.166667 0.005
0.286094 0.208333 0.005
0.285973 0.25 0.005
0.285851 0.291667 0.005
0.285729 0.333333 0.005
0.285608 0.375 0.005
0.285486 0.416667 0.005
0.285365 0.458333 0.005
0.285243 0.5 0.005
0.285121 0.541667 0.005
0.285 0.583333 0.005
0.284878 0.625 0.005
0.284757 0.666667 0.005
0.284635 0.708333 0.005
0.284513 0.75 0.005
0.284392 0.791667 0.005
0.28427 0.833333 0.005
0.284149 0.875 0.005
0.284027 0.916667 0.005
0.283905 0.958333 0.005
0.283784 1.0 0.005
0.32766 0.0 0.005
0.327521 0.0416667 0.005
0.327382 0.0833333 0.005
0.327243 0.125 0.005
0.327104 0.166667 0.005
0.326965 0.208333 0.005
0.326826 0.25 0.005
0.326687 0.291667 0.005
0.326548 0.333333 0.005
0.326409 0.375 0.005
0.32627 0.416667 0.005
0.326131 0.458333 0.005
0.325992 0.5 0.005
0.325853 0.541667 0.005
0.325714 0.583333 0.005
0.325575 0.625 0.005
0.325436 0.666667 0.005
0.325297 0.708333 0.005
0.325158 0.75 0.005
0.325019 0.791667 0.005
0.32488 0.833333 0.005
0.324741 0.875 0.005
0.324602 0.916667 0.005
0.324463 0.958333 0.005
0.324324 1.0 0.005
0.368617 0.0 0.005
0.368461 0.0416667 0.005
0.368305 0.0833333 0.005
0.368148 0.125 0.005
0.367992 0.166667 0.005
0.367835 0.208333 0.005
0.367679 0.25 0.005
0.367523 0.291667 0.005
0.367366 0.333333 0.005
0.36721 0.375 0.005
0.367054 0.416667 0.005
0.366897 0.458333 0.005
0.366741 0.5 0.005
0.366585 0.541667 0.005
0.366428 0.583333 0.005
0.366272 0.625 0.005
0.366116 0.666667 0.005
0.365959 0.708333 0.005
0.365803 0.75 0.005
0.365647 0.791667 0.005
0.36549 0.833333 0.005
0.365334 0.875 0.005
0.365178 0.916667 0.005
0.365021 0.958333 0.005
0.364865 1.0 0.005
0.409575 0.0 0.005
0.409401 0.0416667 0.005
0.409227 0.0833333 0.005
0.409054 0.125 0.005
0.40888 0.166667 0.005
0.408706 0.208333 0.005
0.408532 0.25 0.005
0.408359 0.291667 0.005
0.408185 0.333333 0.005
0.408011 0.375 0.005
0.407838 0.416667 0.005
0.407664 0.458333 0.005
0.40749 0.5 0.005
0.407316 0.541667 0.005
0.407143 0.583333 0.005
0.406969 0.625 0.005
0.406795 0.666667 0.005
0.406621 0.708333 0.005
0.406448 0.75 0.005
0.406274 0.791667 0.005
0.4061 0.833333 0.005
0.405927 0.875 0.005
0.405753 0.916667 0.005
0.405579 0.958333 0.005
0.405405 1.0 0.005
0.450532 0.0 0.005
0.450341 0.0416667 0.005
0.45015 0.0833333 0.005
0.449959 0.125 0.005
0.449768 0.166667 0.005
0.449577 0.208333 0.005
0.449386 0.25 0.005
0.449195 0.291667 0.005
0.449003 0.333333 0.005
0.448812 0.375 0.005
0.448621 0.416667 0.005
0.44843 0.458333 0.005
0.448239 0.5 0.005
0.448048 0.541667 0.005
0.447857 0.583333 0.005
0.447666 0.625 0.005
0.447475 0.666667 0.005
0.447284 0.708333 0.005
0.447093 0.75 0.005
0.446901 0.791667 0.005
0.44671 0.833333 0.005
0.446519 0.875 0.005
0.446328 0.916667 0.005
0.446137 0.958333 0.005
0.445946 1.0 0.005
0.49149 0.0 0.005
0.491281 0.0416667 0.005
0.491073 0.0833333 0.005
0.490864 0.125 0.005
0.490656 0.166667 0.005
0.490447 0.208333 0.005
0.490239 0.25 0.005
0.49003 0.291667 0.005
0.489822 0.333333 0.005
0.489613 0.375 0.005
0.489405 0.416667 0.005
0.489197 0.458333 0.005
0.488988 0.5 0.005
0.48878 0.541667 0.005
0.488571 0.583333 0.005
0.488363 0.625 0.005
0.488154 0.666667 0.005
0.487946 0.708333 0.005
0.487737 0.75 0.005
0.487529 0.791667 0.005
0.48732 0.833333 0.005
0.487112 0.875 0.005
0.486903 0.916667 0.005
0.486695 0.958333 0.005
0.486486 1.0 0.005
0.531954 0.00563435 0.005
0.531749 0.0470663 0.005
0.531544 0.0884982 0.005
0.531338 0.12993 0.005
0.531133 0.171362 0.005
0.530928 0.212794 0.005
0.530722 0.254226 0.005
0.530517 0.295658 0.005
0.530312 0.33709 0.005
0.530107 0.378521 0.005
0.529901 0.419953 0.005
0.529696 0.461385 0.005
0.529491 0.502817 0.005
0.529285 0.544249 0.005
0.52908 0.585681 0.005
0.528875 0.627113 0.005
0.528669 0.668545 0.005
0.528464 0.709977 0.005
0.528259 0.751409 0.005
0.528054 0.79284 0.005
0.527848 0.834272 0.005
0.527643 0.875704 0.005
0.527438 0.917136 0.005
0.527232 0.958568 0.005
0.527027 1.0 0.005
0.572289 0.0127465 0.005
0.572093 0.0538821 0.005
0.571896 0.0950177 0.005
0.571699 0.136153 0.005
0.571502 0.177289 0.005
0.571306 0.218424 0.005
0.571109 0.25956 0.005
0.570912 0.300695 0.005
0.570715 0.341831 0.005
0.570519 0.382967 0.005
0.570322 0.424102 0.005
0.570125 0.465238 0.005
0.569928 0.506373 0.005
0.569732 0.547509 0.005
0.569535 0.588644 0.005
0.569338 0.62978 0.005
0.569142 0.670916 0.005
0.568945 0.712051 0.005
0.568748 0.753187 0.005
0.568551 0.794322 0.005
0.568355 0.835458 0.005
0.568158 0.876593 0.005
0.567961 0.917729 0.005
0.567764 0.958864 0.005
0.567568 1.0 0.005
0.612625 0.0198587 0.005
0.612436 0.0606979 0.005
0.612248 0.101537 0.005
0.61206 0.142376 0.005
0.611872 0.183216 0.005
0.611684 0.224055 0.005
0.611496 0.264894 0.005
0.611307 0.305733 0.005
0.611119 0.346572 0.005
0.610931 0.387412 0.005
0.610743 0.428251 0.005
0.610555 0.46909 0.005
0.610366 0.509929 0.005
0.610178 0.550769 0.005
0.60999 0.591608 0.005
0.609802 0.632447 0.005
0.609614 0.673286 0.005
0.609425 0.714125 0.005
0.609237 0.754965 0.005
0.609049 0.795804 0.005
0.608861 0.836643 0.005
0.608673 0.877482 0.005
0.608484 0.918322 0.005
0.608296 0.959161 0.005
0.608108 1.0 0.005
0.65296 0.0269708 0.005
0.65278 0.0675137 0.005
0.652601 0.108057 0.005
0.652421 0.148599 0.005
0.652241 0.189142 0.005
0.652062 0.229685 0.005
0.651882 0.270228 0.005
0.651702 0.310771 0.005
0.651523 0.351314 0.005
0.651343 0.391857 0.005
0.651164 0.4324 0.005
0.650984 0.472943 0.005
0.650804 0.513485 0.005
0.650625 0.554028 0.005
0.650445 0.594571 0.005
0.650265 0.635114 0.005
0.650086 0.675657 0.005
0.649906 0.7162 0.005
0.649726 0.756743 0.005
0.649547 0.797286 0.005
0.649367 0.837828 0.005
0.649188 0.878371 0.005
0.649008 0.918914 0.005
0.648828 0.959457 0.005
0.648649 1.0 0.005
0.693295 0.034083 0.005
0.693124 0.0743295 0.005
0.692953 0.114576 0.005
0.692782 0.154823 0.005
0.692611 0.195069 0.005
0.69244 0.235316 0.005
0.692269 0.275562 0.005
0.692098 0.315809 0.005
0.691926 0.356055 0.005
0.691755 0.396302 0.005
0.691584 0.436548 0.005
[...]
CELL_DATA 888
SCALARS P float 1
LOOKUP_TABLE default
100130.87160212871
100130.53392758105
100184.94454497965
100128.21937003391
100184.81723312227
100264.4549976367
100124.24852358404
100181.59737299533
100264.7091161575
100381.6259569429
100118.92519250301
100175.86339411701
100260.02122120663
100382.531257647
100554.80007828413
100112.55533769906
100168.13000652658
100251.40171077398
100375.40173153086
100556.79275247034
100811.85086649147
100105.44060809234
100158.88774201547
100239.74564708908
100362.00844792851
100545.48711710503
100815.57965080129
101196.00973499317
100097.86515101611
100148.6011656549
100225.8807092536
100343.93831498013
100524.06792736269
100796.86574742485
101202.16104591178
101776.65294273657
100090.08361985882
100137.6947521861
100210.5612347127
100322.62624404753
100495.41273469063
100761.66547673872
101169.6364435724
101784.74057127285
102671.83245456067
100082.31350722803
100126.5397540213
100194.45012915047
100299.33043068321
100462.05357203135
100715.33227139196
101110.14712869238
101724.7870299513
102674.5967220628
104102.69058315043
100074.73210853002
100115.44656774003
100178.10532781533
100275.1072493582
100426.11037941638
100662.37919829103
101033.88532918533
101621.1394820405
102555.93426921748
104062.325146411
106548.0890819838
100067.47721803143
100104.66323655985
100161.9766437428
100250.80593589984
100389.27294150362
100606.37279970227
100948.90199839321
101493.49397871015
102369.21017851535
103807.59265183347
106292.9590409044
111261.53353335787
100060.65054479927
100094.37883716391
100146.41044466391
100227.07714976546
100352.82185810988
100549.97660181015
100861.0973659485
101355.99077548442
102152.26801982481
103459.31700198025
105699.48971527473
110001.1162389973
122319.85601790425
100054.32255272575
100084.72991998921
100131.66046955045
100204.3970366893
100317.68303912404
100495.07519418716
100774.52880513888
101217.98373867522
101928.72998525151
103086.20225633385
105030.12563574384
108532.19789058818
116076.18244012119
132555.5633768637
100048.53796381861
100075.80855860923
100117.9016702499
100183.09416321844
100284.48656431762
100442.9262499997
100691.82376495737
101085.26007562494
101712.17855063723
102722.972665092
104386.02719376858
107234.14855501014
112525.33229710886
122859.07559599626
140554.08194942086
100043.32134544426
100067.6707440199
100105.24467801466
100163.37788590521
100253.63095023921
100394.30957482792
100614.55966132482
100961.12907375669
101509.80658641575
102385.59810073466
103801.11773963594
106138.66313962947
110140.46859639419
117270.29048222821
129334.29928901592
147018.42259693073
100038.68230887587
100060.34475467385
100093.74977297998
100145.36543662276
100225.33905793804
100349.65107895921
100543.57141988861
100847.25647308385
101324.93403467748
102080.30302965963
103283.29695159239
105218.97191253262
108376.8222229464
113659.75976567387
122288.75225078393
135214.02933081507
152323.89211873393
100034.6202479876
100053.8385185785
100083.43973340583
100129.10460448306
100199.7031959054
100309.12680061549
100479.19190848694
100744.25844176896
101158.61513133581
101808.36154378415
102830.63378397595
104444.74262812195
106999.45950542786
111102.54997352444
117585.95348837058
127254.74344009248
140448.95272652432
156699.75368151104
100031.12862943528
100048.14633896238
100074.31083522973
100114.59446257769
100176.72550068435
100272.74055586522
100421.41971429199
100652.09441295605
101010.61218536731
101568.6003706125
102437.71049990955
103790.69304900414
105889.44081792254
109172.55199822533
114233.54412670613
121700.30392448785
131992.68329790526
145062.06393459757
160304.2463113269
100028.19877816482
100043.25484555429
100066.34225164795
100101.80102699231
100156.3466643044
100240.38447391198
100370.04698596353
100570.3421296932
100879.98568281256
101358.71998702415
102098.1288070852
103236.67895751531
104978.10259554983
107655.06122234605
111712.36922806733
117641.51189095972
125836.20882804737
136412.16121419184
149096.14278598706
163256.62009113535
100025.82361700105
100039.14831902094
100059.50464768702
100090.6715379043
100138.47157737186
100211.88283575857
100324.74527287236
100498.36744374035
100765.45898803498
101175.98068272365
101805.52304422185
102766.52545318812
104221.2956667983
106430.86676741196
109742.05907317737
114549.34947168641
121203.18955490943
129876.64638879409
140471.3963134468
152598.5703561303
165651.64713041784
100024.00185856709
100035.81403125379
100053.76736028485
100081.14493267842
100122.98580595152
100187.02542819457
100285.1260926993
100435.43846024654
100665.62502314392
101017.56737611098
101553.98866294061
102367.08599415202
103588.34730691859
105427.1756628119
108161.72318517278
112116.37797760911
117601.72671645708
124813.26727025319
133742.88252590757
144155.59023694406
155616.20808240635
167567.98184792604
100022.7435653024
100033.2486394702
100049.1060894702
100073.16288804372
100109.77271665432
100165.59207098203
100250.78192429843
100380.80372335439
100579.07268232417
100880.78406485559
101338.21618048332
102027.53731889758
103056.53774100119
104595.71473608502
106872.37573109764
110157.76947577967
114728.1920240016
120787.9907154343
128387.48223385705
137384.37414481724
147465.6383725115
158194.06823779034
169072.97075809387
100022.07948661636
100031.46731652546
100045.51243985028
100066.6798629379
100098.7255962803
100147.37165647192
100221.31644337323
100333.73344919184
100504.46404776318
100763.14939276622
101153.52619168616
101738.89811541156
102608.39886367593
103902.30431444202
105808.51948634334
108556.30511841997
112391.57039172329
117519.74744868284
124033.35933066685
131860.95985604692
140770.25684149764
150412.52953507734
160375.10100655898
170225.55946834604
100030.5195674398
100043.00789689439
100061.67703306067
100089.76283668137
100132.17866625506
100196.36724901732
100293.555137009
100440.57203938169
100662.4305637275
100995.8410963479
101493.67886018331
102230.1406551863
103321.44224055934
104924.17629087607
107233.1642014881
110466.65457403546
114825.35518861127
120431.58913395934
127273.2254373636
135185.54906076507
143883.3925183687
153012.44596083157
162199.72287072483
171075.02947474693
100041.66821554121
100058.182531634
100082.84586119044
100119.87202049451
100175.62561255133
100259.67412180781
100386.30525589558
100576.66479409827
100861.65332611914
101285.60972585963
101910.6311309488
102833.50499963145
104185.41246262821
106132.34712898821
108867.1584611201
112581.06870088587
117415.35288099025
123406.65599572165
130453.52036149126
138326.61174324618
146717.05398399587
155285.57988940718
163705.39552389135
171667.36620786524
100056.30697252316
100078.0085868741
100110.37962607766
100158.85688249228
100231.59301783727
100340.72591225851
100504.15895175538
100747.96614415121
101109.45631970082
101640.81817740864
102422.99385877419
103566.25944857656
105212.2352687373
107530.4749604476
110699.42366259682
114869.70827031542
120115.44623267069
126393.01172792817
133530.86131967462
141260.795472861
149272.00581706094
157253.81771730358
164928.20943077817
172038.36763160714
100075.40668818029
100103.7379644888
100145.93463977751
100208.93840733344
100303.06366183699
100443.48650937481
100652.25353132213
100960.84715105
101413.28690571425
102077.47922609281
103046.3731098014
104440.87073598002
106409.30643004693
109115.36958988148
112711.40054909358
117297.67717542966
122879.90934822128
129344.83313802375
136471.21625768067
143973.74677141837
151554.71960145622
158940.62478538908
165898.4895985489
172224.12371463326
100100.16041243501
100136.89223359899
100191.49939348635
100272.74223577692
100393.49356914875
100572.42416512899
100836.16390395998
101221.95222825329
101786.89982571415
102609.53064524576
103793.08082925498
105466.74364110241
107778.70847253712
110877.23830304343
114878.60940513256
119827.60269624427
125665.43172104211
132223.28811300982
139249.26492296802
146458.31153931588
153575.78058093664
160368.95749413595
166648.46245537337
172252.62182894337
100132.01677252272
100179.29805507074
100249.4281749503
100353.32308868546
100506.80934429247
100732.45211110967
101061.83015830857
101543.09138312606
102242.66832955518
103248.71584417467
104673.4033608457
106649.38506148398
109317.06322792184
112800.31500377144
117172.32717538594
122421.47533119397
128432.57088647818
134996.2979365121
141847.06310146707
148712.2297668239
155348.17590577542
161561.62884141319
167203.91633803683
172154.4057469835
100172.71428069386
100233.11950805913
100322.46829538868
100454.17395339799
100647.37904247029
100928.90471021876
101339.4178054844
101935.19881477352
102791.52284189948
104005.51470594874
105694.91340859664
107989.96870746331
111015.67996071819
114863.98477835492
119561.21023369406
125042.4034527833
131146.38465627158
137638.32586778942
144253.0121309167
150738.92698754597
156886.9457711667
162541.85126527
167592.4372339084
171949.4353723084
100224.31325534398
100300.8878860354
100413.77890316237
100579.22088396641
100820.01913904905
101170.55377039945
101678.55815904752
102408.31336926036
103443.73003535697
104888.59660894483
106861.85750293419
109485.13611563206
112860.91261134687
117043.86776538836
122012.8089346826
127655.6216320116
133776.9160399239
140130.28283196382
146460.9363449081
152544.4179979695
158208.06214542742
163332.2850391385
167837.61946546903
171667.19587681704
100289.22721116376
100385.52754508649
100526.94451881218
100732.85411782861
101032.34043336792
101465.89870609876
102088.40703370098
102972.22001311627
104208.36235006407
105904.1493790821
108174.7943610271
111127.01976427091
114834.95758138296
119313.02698149024
124494.91461130354
130229.65130155157
136299.40237152379
142457.3574045211
148468.5404970705
154138.58934956568
159329.35091120205
163954.84146305828
167964.1854046973
171326.79813394474
100370.2511867294
100490.37994809904
100666.0178804427
100921.74407917119
101291.87902549224
101823.24668101774
102578.12423828102
103636.00211086568
105092.78370699393
107055.50356770778
109630.418574594
112903.62141102637
116916.62427624677
121643.15805476384
126976.62089952521
132736.1216703034
138693.9479482746
144611.4542331587
150278.0667390491
155532.15166832219
160268.41190624915
164430.7348633823
167995.4454707716
170956.8469468275
100470.59357971611
100619.25866370568
100836.9345225192
101152.61223638852
101606.16048205835
102251.08087863885
103156.51305530741
104407.5456547085
106102.14654152379
108342.7917662844
111221.54987402729
114799.18380241358
119082.27868164289
124005.62632328834
129429.11154185026
135151.77252539343
140944.58432504124
146586.37062740597
151893.81575657142
156737.30167666404
161043.48950930164
164782.81459110318
167957.16080822115
170588.1124502766
100593.93582394117
100777.56633130534
101045.76118320372
101432.30164295189
101983.00403257195
102757.78456528856
103831.64615464753
105293.18187392825
107239.04385819202
109762.68795049931
112937.34740669435
116794.93737785365
121306.63888997868
126372.41548687361
131825.6363571803
137455.90114850222
143040.7609008444
148380.714075165
153322.64399080488
157768.16136645578
161672.8038382157
165033.34700346462
167876.88073338545
170269.10790690762
100745.38739046012
100970.89857427067
101298.7767491798
101768.01596928328
102430.28829927725
103351.31194199435
104610.44391560431
106297.2080634195
108503.19075276951
111308.53055165753
114763.56515290713
118869.64107763358
123563.88806516101
128716.44515129477
134143.171689381
139631.5329309365
144973.56035728857
149995.2719794343
154572.88808425175
158638.7304056562
162175.53022893344
165205.6462119601
167789.12547420416
170057.07545118858
100930.2691327262
101205.11021523536
101602.6585597335
102167.13498656136
102955.71567470228
104038.85004531965
105498.30763541917
107421.5443179029
109891.24815319224
112970.2119048287
116683.12111746403
120999.98383406445
125827.6519629278
131012.69414064003
136360.91117663024
141665.7090837589
146738.50285507634
151432.49889659253
155653.52328888458
159362.87171407882
162569.12270465234
165321.59757605818
167727.6792439354
101154.19805277309
101486.46379750149
101964.32140784232
102637.0013938298
103566.46867656495
104826.4589751757
106498.77619585754
108665.48764683954
111396.72023650596
114734.56694750515
118676.42899475322
123162.46760540109
128072.72226704376
133237.80612952219
138460.98298915313
143547.6097192765
148331.92310016643
152695.04973404275
156572.57633896873
159951.91459060466
162865.07413990903
165392.93105199747
101423.19506531478
101821.51111050346
102390.7471318328
103184.66514794224
104268.9102279518
105718.6900037826
107613.09098887851
110025.5103084698
113010.04775019946
116585.6604515267
120722.07110609306
125331.97214074567
130274.2484422932
135370.46746100474
140427.49091135108
145268.0056915146
149751.01298784008
153786.09647716783
157334.61711817974
160407.0529439878
163053.43397323228
101743.58248510104
102216.91825229014
102888.76012858356
103816.57071503915
105068.26093936095
106718.24836832681
108840.0382017562
111495.0543115242
114718.36676263447
118504.63253310132
122796.60490424199
127483.23067090729
132408.40316744556
137390.24665653423
142245.749086759
146818.08908332916
150991.55569313123
154701.87542118772
157931.5454181459
160698.66396247945
102121.84139784572
102679.28111813815
103464.75822517
104538.26696649831
105968.21055257642
107825.71044954218
110175.68482129455
113064.65805542844
116506.51504069216
120470.84895490744
124876.07353829316
129591.52683406265
134451.86699925928
139277.6801866738
143901.20652880534
148186.47456659778
152043.0714305982
155424.24402557625
158314.4186081022
102564.4059993148
103214.89282445925
104124.42832566018
105354.09461078935
106970.5968628399
109039.16232502027
111613.18263605755
114721.49974773917
118356.04324812061
122461.7297609474
126934.93856333641
131631.27389016355
136381.0995031051
141013.01293014723
145376.11571567872
149355.3675510135
152876.4370456045
155887.9284457912
103077.470238268
103829.46141374053
104872.46283017968
106266.77800033549
108075.12343991878
110354.01952817319
113142.52232469794
116450.14635456403
120245.7760244969
124451.62487036346
128946.55021729974
133575.72264170257
138171.03512465148
142572.19380896472
146644.70634787422
150286.1709823207
153411.23506494606
103666.72643812625
104527.82394752013
105712.1564245564
107277.1196508485
109278.81841065006
111762.50816173866
114750.60715716504
118231.70294323476
122152.13956960266
126414.26424604742
130881.82105165966
135395.60306443943
139791.9941795701
143921.59443203846
147657.94373199175
150882.21697225742
104337.0571654929
105313.63315800928
106645.12205302124
108383.69152256373
110576.25750534597
113253.94736928845
116420.84668014411
120043.97168387628
124048.34144875853
128318.4756340344
132707.8495026961
137055.8686169817
141203.35174182762
145003.14090006606
148306.38892638191
105092.24320268718
106188.96898488242
107670.92690934215
109582.3709872875
111958.41498439829
114813.81696337473
118132.97249371653
121860.98598362907
125903.42310699682
130129.84688182086
134386.3656293899
138509.7395939442
142338.150163612
145694.75225831044
105934.61895985805
107154.00342546761
108786.44837706903
110865.78420529845
113412.71009271401
116423.69479939704
119862.0648833744
123652.09724733952
127681.27693197958
131805.85370099705
135864.182779945
139683.13265369652
143063.51182076786
106864.62855546219
108206.5125999708
109985.9386604707
112223.44303493453
114922.68409770059
118060.42711686519
121578.28153277357
125380.46412734763
129336.5771779569
133289.7424972715
137060.511193032
140432.78192220195
107880.52354470048
109341.45174605901
111259.83750861452
113640.05903240657
116466.79890165308
119695.24226352913
123244.99047235108
126999.6343562348
130809.59220972644
134494.63234185817
137825.29605923383
108977.7228932955
110550.44009026236
112594.64545369644
115095.9385045586
118017.65422834724
121291.91736230445
124815.08026728815
128447.42859190961
132010.05276373305
135265.50066090716
110148.39357110589
111820.96129636111
113971.84098764163
116564.9807388422
119539.99213204948
122803.48430104734
126225.09517993606
129630.48235871865
132777.8698016628
111380.59708501934
113135.53756481789
115366.69984725551
118013.04317260726
120987.25965026721
124166.30281500756
127380.58396253618
130387.80664899995
112657.42853154404
114470.47619819595
116746.149831698
119394.96037160786
122296.49544162277
125285.78775835646
128120.67917558317
113955.90558380047
115793.98790589787
118066.56497322774
120648.58454726102
123374.57056287715
126003.1826810545
115244.94810295838
117063.18257188331
119266.8288238364
121682.17706474011
124065.44638797683
116482.41851125458
118218.71470913108
120257.76993622327
122344.9330541596
117609.91977431857
119173.48095128861
120892.77964064502
118541.66181856013
119784.93496513469
119138.26258865831
SCALARS T float 1
LOOKUP_TABLE default
300.11295871459316
300.11264914642794
300.1600683754604
300.1106279752068
300.159917250448
300.229730899891
300.1071727157418
300.15708042263316
300.2298587824331
300.33314180182464
300.10254768829793
300.15205965483636
300.22567737734454
300.3337222813305
300.4874134242116
300.09701950435823
300.14530458058323
300.2180667116997
300.32726042785083
300.48869150528327
300.71909976806074
300.0908508753208
300.13724486981033
300.2078132053233
300.31530813728324
300.47824050316046
300.7213393444157
301.07028475865286
300.0842888647151
300.12828728119337
300.19564654091016
300.2992702930917
300.4588741213271
300.7036397430261
301.07340010866517
301.6097162555907
300.0775543886097
300.1188026607556
300.18223135435875
300.2804217411545
300.43316352014267
300.67131833968483
301.0418821899676
301.61170884678654
302.455015925098
300.0708356109959
300.1091143118996
300.1681499558659
300.2598789787579
300.403378280249
300.6292092686413
300.98631223421995
301.5523122798641
302.44590391576986
303.822174176233
300.064285432828
300.0994914745139
300.1538902059595
300.23857537746204
300.37141413358825
300.5813964282494
300.91599513325525
301.45379091440134
302.3266545290715
303.76076994724866
306.15213329577125
300.0580222456814
300.0901483038335
300.13984316744535
300.2172564306437
300.33877281155725
300.5310939096545
300.8382841252056
301.3343033765353
302.14650264625294
303.5049358776884
305.87379350370406
310.48271567653904
300.05213303634747
300.08124714416095
300.1263078844067
300.19648853084277
300.3065818605431
300.4806806576987
300.75853268454364
301.20686435766464
301.9405626950978
303.16623229392457
305.2909286714915
309.3100805640966
319.6523365396371
300.04667769871685
300.072904430153
300.1135015594291
300.1766817921225
300.2756464255644
300.4318171871836
300.6803743411508
301.07999726599405
301.7306731453871
302.80846596535775
304.642923253331
307.93591406233367
314.65240411737364
327.6221348426687
300.0416938873824
300.0651979213493
300.10157226620817
300.15811528862355
300.24650517828275
300.3855902453196
300.6061135821844
300.9588719152782
301.5292042789399
302.46376811585105
304.02385041431387
306.7064792400261
311.562280977784
320.35839081044173
333.60348927668446
300.03720191121465
300.0581741639853
300.09061204001256
300.1409632019028
300.21949038347054
300.3426539849506
300.5370884526209
300.84634167496654
301.34249038305484
302.14656509784595
303.46557606468184
305.66259459681106
309.3871254285562
315.74305516824256
325.58907861202374
338.30784125864477
300.033209262274
300.0518558628979
300.0806693694996
300.1253194370902
300.1947796208439
300.30334663866114
300.4739633295099
300.7437428395429
301.1732331434604
301.8620383845924
302.97511890711775
304.7860599630008
307.73902124578194
312.57067686601243
320.02353403941595
330.17620846218944
342.0900759830811
300.02971472518726
300.0462483228972
300.07176057012566
300.11121801914317
300.1724370555143
300.2677870948917
300.41695573076083
300.6514618788455
301.0220462231061
301.61071044476614
302.54987329906396
304.05094189477586
306.4384295833814
310.2385198622472
316.03880072957423
324.12412845660367
334.1404330592667
345.15839109498114
300.02671208241526
300.0413452958401
300.06387943568564
300.0986514898823