# vtk DataFile Version 2.0
JuliaCFD
ASCII
DATASET UNSTRUCTURED_GRID

POINTS 1900 float
0.0 0.0 0.005
0.0 0.0416667 0.005
0.0 0.0833333 0.005
0.0 0.125 0.005
0.0 0.166667 0.005
0.0 0.208333 0.005
0.0 0.25 0.005
0.0 0.291667 0.005
0.0 0.333333 0.005
0.0 0.375 0.005
0.0 0.416667 0.005
0.0 0.458333 0.005
0.0 0.5 0.005
0.0 0.541667 0.005
0.0 0.583333 0.005
0.0 0.625 0.005
0.0 0.666667 0.005
0.0 0.708333 0.005
0.0 0.75 0.005
0.0 0.791667 0.005
0.0 0.833333 0.005
0.0 0.875 0.005
0.0 0.916667 0.005
0.0 0.958333 0.005
0.0 1.0 0.005
0.0409575 0.0 0.005
0.0409401 0.0416667 0.005
0.0409227 0.0833333 0.005
0.0409054 0.125 0.005
0.040888 0.166667 0.005
0.0408706 0.208333 0.005
0.0408532 0.25 0.005
0.0408359 0.291667 0.005
0.0408185 0.333333 0.005
0.0408011 0.375 0.005
0.0407838 0.416667 0.005
0.0407664 0.458333 0.005
0.040749 0.5 0.005
0.0407316 0.541667 0.005
0.0407143 0.583333 0.005
0.0406969 0.625 0.005
0.0406795 0.666667 0.005
0.0406621 0.708333 0.005
0.0406448 0.75 0.005
0.0406274 0.791667 0.005
0.04061 0.833333 0.005
0.0405927 0.875 0.005
0.0405753 0.916667 0.005
0.0405579 0.958333 0.005
0.0405405 1.0 0.005
0.0819149 0.0 0.005
0.0818802 0.0416667 0.005
0.0818455 0.0833333 0.005
0.0818107 0.125 0.005
0.081776 0.166667 0.005
0.0817412 0.208333 0.005
0.0817065 0.25 0.005
0.0816717 0.291667 0.005
0.081637 0.333333 0.005
0.0816022 0.375 0.005
0.0815675 0.416667 0.005
0.0815328 0.458333 0.005
0.081498 0.5 0.005
0.0814633 0.541667 0.005
0.0814285 0.583333 0.005
0.0813938 0.625 0.005
0.081359 0.666667 0.005
0.0813243 0.708333 0.005
0.0812895 0.75 0.005
0.0812548 0.791667 0.005
0.0812201 0.833333 0.005
0.0811853 0.875 0.005
0.0811506 0.916667 0.005
0.0811158 0.958333 0.005
0.0810811 1.0 0.005
0.122872 0.0 0.005
0.12282 0.0416667 0.005
0.122768 0.0833333 0.005
0.122716 0.125 0.005
0.122664 0.166667 0.005
0.122612 0.208333 0.005
0.12256 0.25 0.005
0.122508 0.291667 0.005
0.122455 0.333333 0.005
0.122403 0.375 0.005
0.122351 0.416667 0.005
0.122299 0.458333 0.005
0.122247 0.5 0.005
0.122195 0.541667 0.005
0.122143 0.583333 0.005
0.122091 0.625 0.005
0.122039 0.666667 0.005
0.121986 0.708333 0.005
0.121934 0.75 0.005
0.121882 0.791667 0.005
0.12183 0.833333 0.005
0.121778 0.875 0.005
0.121726 0.916667 0.005
0.121674 0.958333 0.005
0.121622 1.0 0.005
0.16383 0.0 0.005
0.16376 0.0416667 0.005
0.163691 0.0833333 0.005
0.163621 0.125 0.005
0.163552 0.166667 0.005
0.163482 0.208333 0.005
0.163413 0.25 0.005
0.163343 0.291667 0.005
0.163274 0.333333 0.005
0.163204 0.375 0.005
0.163135 0.416667 0.005
0.163066 0.458333 0.005
0.162996 0.5 0.005
0.162927 0.541667 0.005
0.162857 0.583333 0.005
0.162788 0.625 0.005
0.162718 0.666667 0.005
0.162649 0.708333 0.005
0.162579 0.75 0.005
0.16251 0.791667 0.005
0.16244 0.833333 0.005
0.162371 0.875 0.005
0.162301 0.916667 0.005
0.162232 0.958333 0.005
0.162162 1.0 0.005
0.204787 0.0 0.005
0.2047 0.0416667 0.005
0.204614 0.0833333 0.005
0.204527 0.125 0.005
0.20444 0.166667 0.005
0.204353 0.208333 0.005
0.204266 0.25 0.005
0.204179 0.291667 0.005
0.204092 0.333333 0.005
0.204006 0.375 0.005
0.203919 0.416667 0.005
0.203832 0.458333 0.005
0.203745 0.5 0.005
0.203658 0.541667 0.005
0.203571 0.583333 0.005
0.203484 0.625 0.005
0.203398 0.666667 0.005
0.203311 0.708333 0.005
0.203224 0.75 0.005
0.203137 0.791667 0.005
0.20305 0.833333 0.005
0.202963 0.875 0.005
0.202876 0.916667 0.005
0.20279 0.958333 0.005
0.202703 1.0 0.005
0.245745 0.0 0.005
0.245641 0.0416667 0.005
0.245536 0.0833333 0.005
0.245432 0.125 0.005
0.245328 0.166667 0.005
0.245224 0.208333 0.005
0.245119 0.25 0.005
0.245015 0.291667 0.005
0.244911 0.333333 0.005
0.244807 0.375 0.005
0.244703 0.416667 0.005
0.244598 0.458333 0.005
0.244494 0.5 0.005
0.24439 0.541667 0.005
0.244286 0.583333 0.005
0.244181 0.625 0.005
0.244077 0.666667 0.005
0.243973 0.708333 0.005
0.243869 0.75 0.005
0.243764 0.791667 0.005
0.24366 0.833333 0.005
0.243556 0.875 0.005
0.243452 0.916667 0.005
0.243347 0.958333 0.005
0.243243 1.0 0.005
0.286702 0.0 0.005
0.286581 0.0416667 0.005
0.286459 0.0833333 0.005
0.286337 0.125 0.005
0.286216 0.166667 0.005
0.286094 0.208333 0.005
0.285973 0.25 0.005
0.285851 0.291667 0.005
0.285729 0.333333 0.005
0.285608 0.375 0.005
0.285486 0.416667 0.005
0.285365 0.458333 0.005
0.285243 0.5 0.005
0.285121 0.541667 0.005
0.285 0.583333 0.005
0.284878 0.625 0.005
0.284757 0.666667 0.005
0.284635 0.708333 0.005
0.284513 0.75 0.005
0.284392 0.791667 0.005
0.28427 0.833333 0.005
0.284149 0.875 0.005
0.284027 0.916667 0.005
0.283905 0.958333 0.005
0.283784 1.0 0.005
0.32766 0.0 0.005
0.327521 0.0416667 0.005
0.327382 0.0833333 0.005
0.327243 0.125 0.005
0.327104 0.166667 0.005
0.326965 0.208333 0.005
0.326826 0.25 0.005
0.326687 0.291667 0.005
0.326548 0.333333 0.005
0.326409 0.375 0.005
0.32627 0.416667 0.005
0.326131 0.458333 0.005
0.325992 0.5 0.005
0.325853 0.541667 0.005
0.325714 0.583333 0.005
0.325575 0.625 0.005
0.325436 0.666667 0.005
0.325297 0.708333 0.005
0.325158 0.75 0.005
0.325019 0.791667 0.005
0.32488 0.833333 0.005
0.324741 0.875 0.005
0.324602 0.916667 0.005
0.324463 0.958333 0.005
0.324324 1.0 0.005
0.368617 0.0 0.005
0.368461 0.0416667 0.005
0.368305 0.0833333 0.005
0.368148 0.125 0.005
0.367992 0.166667 0.005
0.367835 0.208333 0.005
0.367679 0.25 0.005
0.367523 0.291667 0.005
0.367366 0.333333 0.005
0.36721 0.375 0.005
0.367054 0.416667 0.005
0.366897 0.458333 0.005
0.366741 0.5 0.005
0.366585 0.541667 0.005
0.366428 0.583333 0.005
0.366272 0.625 0.005
0.366116 0.666667 0.005
0.365959 0.708333 0.005
0.365803 0.75 0.005
0.365647 0.791667 0.005
0.36549 0.833333 0.005
0.365334 0.875 0.005
0.365178 0.916667 0.005
0.365021 0.958333 0.005
0.364865 1.0 0.005
0.409575 0.0 0.005
0.409401 0.0416667 0.005
0.409227 0.0833333 0.005
0.409054 0.125 0.005
0.40888 0.166667 0.005
0.408706 0.208333 0.005
0.408532 0.25 0.005
0.408359 0.291667 0.005
0.408185 0.333333 0.005
0.408011 0.375 0.005
0.407838 0.416667 0.005
0.407664 0.458333 0.005
0.40749 0.5 0.005
0.407316 0.541667 0.005
0.407143 0.583333 0.005
0.406969 0.625 0.005
0.406795 0.666667 0.005
0.406621 0.708333 0.005
0.406448 0.75 0.005
0.406274 0.791667 0.005
0.4061 0.833333 0.005
0.405927 0.875 0.005
0.405753 0.916667 0.005
0.405579 0.958333 0.005
0.405405 1.0 0.005
0.450532 0.0 0.005
0.450341 0.0416667 0.005
0.45015 0.0833333 0.005
0.449959 0.125 0.005
0.449768 0.166667 0.005
0.449577 0.208333 0.005
0.449386 0.25 0.005
0.449195 0.291667 0.005
0.449003 0.333333 0.005
0.448812 0.375 0.005
0.448621 0.416667 0.005
0.44843 0.458333 0.005
0.448239 0.5 0.005
0.448048 0.541667 0.005
0.447857 0.583333 0.005
0.447666 0.625 0.005
0.447475 0.666667 0.005
0.447284 0.708333 0.005
0.447093 0.75 0.005
0.446901 0.791667 0.005
0.44671 0.833333 0.005
0.446519 0.875 0.005
0.446328 0.916667 0.005
0.446137 0.958333 0.005
0.445946 1.0 0.005
0.49149 0.0 0.005
0.491281 0.0416667 0.005
0.491073 0.0833333 0.005
0.490864 0.125 0.005
0.490656 0.166667 0.005
0.490447 0.208333 0.005
0.490239 0.25 0.005
0.49003 0.291667 0.005
0.489822 0.333333 0.005
0.489613 0.375 0.005
0.489405 0.416667 0.005
0.489197 0.458333 0.005
0.488988 0.5 0.005
0.48878 0.541667 0.005
0.488571 0.583333 0.005
0.488363 0.625 0.005
0.488154 0.666667 0.005
0.487946 0.708333 0.005
0.487737 0.75 0.005
0.487529 0.791667 0.005
0.48732 0.833333 0.005
0.487112 0.875 0.005
0.486903 0.916667 0.005
0.486695 0.958333 0.005
0.486486 1.0 0.005
0.531954 0.00563435 0.005
0.531749 0.0470663 0.005
0.531544 0.0884982 0.005
0.531338 0.12993 0.005
0.531133 0.171362 0.005
0.530928 0.212794 0.005
0.530722 0.254226 0.005
0.530517 0.295658 0.005
0.530312 0.33709 0.005
0.530107 0.378521 0.005
0.529901 0.419953 0.005
0.529696 0.461385 0.005
0.529491 0.502817 0.005
0.529285 0.544249 0.005
0.52908 0.585681 0.005
0.528875 0.627113 0.005
0.528669 0.668545 0.005
0.528464 0.709977 0.005
0.528259 0.751409 0.005
0.528054 0.79284 0.005
0.527848 0.834272 0.005
0.527643 0.875704 0.005
0.527438 0.917136 0.005
0.527232 0.958568 0.005
0.527027 1.0 0.005
0.572289 0.0127465 0.005
0.572093 0.0538821 0.005
0.571896 0.0950177 0.005
0.571699 0.136153 0.005
0.571502 0.177289 0.005
0.571306 0.218424 0.005
0.571109 0.25956 0.005
0.570912 0.300695 0.005
0.570715 0.341831 0.005
0.570519 0.382967 0.005
0.570322 0.424102 0.005
0.570125 0.465238 0.005
0.569928 0.506373 0.005
0.569732 0.547509 0.005
0.569535 0.588644 0.005
0.569338 0.62978 0.005
0.569142 0.670916 0.005
0.568945 0.712051 0.005
0.568748 0.753187 0.005
0.568551 0.794322 0.005
0.568355 0.835458 0.005
0.568158 0.876593 0.005
0.567961 0.917729 0.005
0.567764 0.958864 0.005
0.567568 1.0 0.005
0.612625 0.0198587 0.005
0.612436 0.0606979 0.005
0.612248 0.101537 0.005
0.61206 0.142376 0.005
0.611872 0.183216 0.005
0.611684 0.224055 0.005
0.611496 0.264894 0.005
0.611307 0.305733 0.005
0.611119 0.346572 0.005
0.610931 0.387412 0.005
0.610743 0.428251 0.005
0.610555 0.46909 0.005
0.610366 0.509929 0.005
0.610178 0.550769 0.005
0.60999 0.591608 0.005
0.609802 0.632447 0.005
0.609614 0.673286 0.005
0.609425 0.714125 0.005
0.609237 0.754965 0.005
0.609049 0.795804 0.005
0.608861 0.836643 0.005
0.608673 0.877482 0.005
0.608484 0.918322 0.005
0.608296 0.959161 0.005
0.608108 1.0 0.005
0.65296 0.0269708 0.005
0.65278 0.0675137 0.005
0.652601 0.108057 0.005
0.652421 0.148599 0.005
0.652241 0.189142 0.005
0.652062 0.229685 0.005
0.651882 0.270228 0.005
0.651702 0.310771 0.005
0.651523 0.351314 0.005
0.651343 0.391857 0.005
0.651164 0.4324 0.005
0.650984 0.472943 0.005
0.650804 0.513485 0.005
0.650625 0.554028 0.005
0.650445 0.594571 0.005
0.650265 0.635114 0.005
0.650086 0.675657 0.005
0.649906 0.7162 0.005
0.649726 0.756743 0.005
0.649547 0.797286 0.005
0.649367 0.837828 0.005
0.649188 0.878371 0.005
0.649008 0.918914 0.005
0.648828 0.959457 0.005
0.648649 1.0 0.005
0.693295 0.034083 0.005
0.693124 0.0743295 0.005
0.692953 0.114576 0.005
0.692782 0.154823 0.005
0.692611 0.195069 0.005
0.69244 0.235316 0.005
0.692269 0.275562 0.005
0.692098 0.315809 0.005
0.691926 0.356055 0.005
0.691755 0.396302 0.005
0.691584 0.436548 0.005
[...]
CELL_DATA 888
SCALARS P float 1
LOOKUP_TABLE default
100143.33788316572
100142.99167389316
100202.01436950632
100140.60655850508
100201.88732479356
100287.49673261675
100136.51149233148
100198.57499553934
100287.76702068652
100412.39782437704
100131.01700560008
100192.67075716768
100282.95842941687
100413.34517691557
100595.55999909929
100124.4354085056
100184.70057364038
100274.10562110326
100406.05727545155
100597.63549976787
100865.49609909192
100117.07472471616
100175.16486974657
100262.12184225045
100392.34296244424
100586.11956117292
100869.3714489255
101266.25317445869
100109.22555036511
100164.53765749716
100247.85027626129
100373.8178977209
100564.25508506907
100850.3733949407
101272.65037329994
101868.2433039301
100101.14897048511
100153.25267090237
100232.05953156711
100351.94125093924
100534.96486172821
100814.54854749564
101239.73240069245
101876.73003139447
102790.83025853649
100093.06876744826
100141.69022100001
100215.42605884696
100327.99296886762
100500.81897211703
100767.32226893594
101179.35460341522
101816.21297397769
102794.21951010163
104256.83077618916
100085.16827504389
100130.16944870983
100198.52068782313
100303.04941372282
100463.97063582046
100713.26763296519
101101.82571692095
101711.27995501352
102674.70915663597
104217.37447500172
106747.36207221643
100077.59099082311
100118.94671192652
100181.80542880538
100277.97833238801
100426.13930028447
100656.00223869336
101015.2919475341
101581.81992392494
102486.08910841867
103961.27571069925
106493.27163925127
111519.59910746466
100070.44394211804
100108.21888956682
100165.63805942863
100253.44739199814
100388.63205335823
100598.23347112456
100925.73169286891
101442.12463442431
102266.52686076298
103610.1474692897
105897.40315123145
110259.00900368218
122659.41543252826
100063.8025013938
100098.12976745507
100150.28287876364
100229.94831721218
100352.39851572018
100541.8837293871
100837.26657482889
101301.66595271818
102039.88204885427
103233.23061270738
105223.67396081309
108785.48746983579
116406.64618982552
132986.0542820812
100057.71588611389
100088.77806873714
100135.924529591
100207.82383969182
100318.08985464647
100488.24330857658
100752.57720349205
101166.32348383292
101819.91048343013
102865.60577093087
104574.0681480977
107480.7131975921
112846.58196844482
123274.3962301876
141081.21695353737
100052.21275984922
100080.22584782641
100122.68246723288
100187.29610330777
100286.12334470822
100438.12028007064
100673.2852796231
101039.47960232587
101613.93330784433
102523.48370910388
103982.99261700359
106377.35451038172
110451.572664155
117672.15006467531
129844.8825590266
147649.27024813698
100047.30645639753
100072.50689080486
100110.62495972529
100168.49385149297
100256.7385129276
100391.96503488797
100600.26281704653
100922.85854828452
101425.36726452105
102213.25739777798
103458.65140257558
105449.16426228701
108677.0149878766
114047.95083105122
122783.40466032595
135829.83022403074
153066.2292249216
100042.99975510097
100065.63411065757
100099.7819925824
100151.47517069828
100230.04237983043
100349.97488696505
100533.87406216149
100817.12404151139
101255.34133680824
101936.32297527812
102999.31737640224
104666.13621036558
107288.27414648113
111476.54896160171
118064.14947992962
127854.01052196366
141179.90368938888
157561.76529160116
100039.28922084045
100059.60632959513
100090.15633283214
100136.24835942038
100206.05013037269
100312.17215354269
100474.1441545968
100722.2744724589
101103.67663287629
101691.59822346187
102599.71674445858
104003.20924775353
106166.67983342407
109531.97025900274
114694.53897941617
122281.46290865043
132708.21228505296
145918.09911909915
161294.38465824715
100036.16905056697
100054.41429999127
100081.73300340242
100122.78766792396
100184.71397208907
100278.4651059615
100420.88793840903
100637.91999355222
100969.48060709581
101476.85347744935
102253.55680436091
103440.39736065536
105243.783884848
107999.74311093419
112155.5861377835
118203.13114745202
126533.28370824714
137255.51597616397
150087.21057693817
164383.50143915502
100033.63490641386
100050.04612289809
100074.48800477268
100111.04775938332
100165.94906983117
100248.69213319967
100373.79646597018
100563.45357706271
100851.51485247731
101289.4037271232
101954.55138814068
102961.64252768332
104475.60251838481
106760.88442929876
110167.21058638516
115090.34087293982
121879.32300138511
130702.53382677677
141453.99124978
153734.5569136817
166923.94835681948
100031.68826046902
100046.49273779799
100068.3956322154
100100.97430131654
100149.6501290143
100222.65544946685
100332.49813163238
100498.1662024134
100748.40369147694
101126.47736655283
101696.85739506362
102553.88639749167
103831.59309523032
105742.79235574129
108568.81253239204
112636.07688769535
118255.01880997591
125617.90753594354
134710.32673354875
145288.634363503
156906.84467768134
168994.3276804847
100030.34221895896
100043.75457342816
100063.43640585145
100092.51528493542
100135.70887718881
100200.1459651709
100296.60013641638
100441.32605578644
100658.76210780162
100985.41355112866
101475.21349922149
102206.37329397886
103289.13375749385
104897.3472776645
107261.66324949425
110655.9253762207
115357.34506867836
121568.44273468618
129334.5655495653
138505.8539851984
148760.0132452172
159648.82326995855
170661.80415406427
100029.63138147045
100041.85114515983
100059.60703136103
100085.63140797385
100124.02647438404
100180.96271013116
100265.7192379964
100392.22027483776
100581.27427772268
100863.7598817864
101284.97866482001
101910.17453760566
102830.83167663035
104190.49218941189
106180.473703782
109033.03261301314
112995.8577510639
118273.8474139121
124955.93822749043
132964.19602660928
142057.88304367836
151878.70211020758
162003.05108858438
171984.98711303933
100040.83778124327
100056.93511591449
100080.31065892366
100114.52929225567
100164.92983346006
100239.50504616393
100350.19145358041
100514.73211247352
100759.30756298208
101122.10614410852
101657.8418998241
102442.95655029936
103596.81686221113
105279.43233877298
107688.8821854683
111045.8614417492
115551.67894332338
121326.45755728903
128352.7869226116
136458.25269939
145348.73053784177
154660.3139449364
164009.38135827167
173012.59204294372
100055.504957718
100076.5896472725
100107.18770411819
100151.91627171307
100217.66052967495
100314.65888126493
100458.0610560219
100670.11439757848
100983.11399998565
101443.1381735984
102114.42130613646
103096.77023547038
104524.73489721362
106567.7169776631
109421.50401920217
113278.86273629688
118280.18680227824
124458.17145580455
131704.5730880863
139781.50956533293
148370.9644028471
157124.29870692416
165704.51229061032
173789.84562435767
100074.59113424852
100102.04715206742
100141.86155476417
100199.96339921333
100285.13892636723
100410.33911323953
100594.50563594217
100865.02720208117
101260.85583354732
101836.20890108672
102674.90747421891
103890.51028835273
105628.10828756611
108060.5347509682
111368.52806873548
115703.01537467628
121135.54309798297
127616.83377450996
134967.3398324153
142909.82683629138
151124.4484307572
159291.5724049374
167123.5462859265
174351.35543090466
100099.2801375953
100134.81755110249
100186.30210827489
100261.2732940004
100370.81192020755
100531.07215814834
100765.3391707219
101106.6458148629
101600.93314664968
102318.84114930859
103356.4885133992
104838.24510793673
106915.93879493409
109756.12013988418
113512.43986858564
118283.93808741448
124071.9777292738
130756.11001595651
138106.22541605352
145827.84424990948
153614.5390679026
161184.45587016674
168295.51541597824
174731.77840602043
100131.02047441232
100176.73022363729
100242.86983245095
100338.92135668981
100478.67826357648
100681.97737791775
100976.91000563165
101402.53253672128
102018.54193174519
102906.50241304912
104173.06547141558
105951.0265616361
108391.85122517971
111645.9283048739
115829.52119571913
120984.43893111892
127045.80333315692
133836.3585910802
141094.82203014087
148527.1373899555
155850.43747214443
162824.41910575487
169250.9183574256
174957.0293414642
100171.56539219743
100229.976891417
100314.35738756832
100436.48852553697
100613.29367356097
100868.71411426779
101236.04371780423
101765.87231120314
102527.53148510947
103612.5012903004
105136.58683179237
107235.9905267458
110053.88069409832
113715.18442057927
118291.47110326737
123766.31304393063
130016.84561757366
136824.38311652688
143913.81333154388
151003.9025003092
157843.5190703097
164232.37844945633
170013.37868865684
175055.19560277814
100223.01464115219
100297.15177128545
100404.02511429464
100558.07836635986
100779.74858935966
101097.4729728328
101554.2200562996
102209.02188769549
103140.36274464168
104448.97575780319
106256.30908182332
108695.85288404909
111894.53855563291
115943.94554584984
120866.97832574045
126592.07985393262
132949.0649929144
139693.19427890753
146549.91156205232
153259.6879375659
159606.74972657944
165429.18073141074
170607.74868535635
175042.87579783113
100287.85409508238
100381.28963477237
100515.62789652498
100708.31921447278
100983.68990128761
101378.2839686163
101942.43849077377
102743.50994430768
103868.94453390999
105426.30911263516
107538.11886709715
110328.63234831304
113901.08229150783
118308.10675648962
123523.19074308754
129425.95797534667
135811.02448851566
142421.89752312878
148994.91573621272
155298.33492554585
161153.54910731627
166434.56183843763
171054.16520294448
174945.5047795032
100368.99547114044
100485.89987936639
100653.4365762726
100892.40953033522
101233.93551656764
101720.96407632511
102411.30365831862
103380.73799894724
104724.06964343302
106552.39312474719
108984.09063182355
112127.57937188825
116056.2410325245
120780.56195939434
126227.02872371553
132235.01017785963
138576.07022252632
144993.48645354694
151244.05631682696
157126.98767580738
162498.62292257758
167266.79301545737
171373.07233200167
174776.9441796085
100469.81287065061
100614.99875876246
100822.29410194034
101118.18366947067
101539.29404966414
102135.22792224184
102971.5595489492
104131.50335068013
105714.84816670098
107832.1831628958
110592.22360619175
114081.47056176567
118338.90129922458
123332.33042875664
128946.2165947808
134988.94345399537
141221.98068996446
147397.22346341252
153296.67089097894
158753.03148709686
163655.7363894351
167942.64580772165
171582.44348936313
174559.45071113706
100594.18316561365
100773.17700986753
101029.26456853995
101393.59513088476
101908.6583874611
102631.10573404461
103633.70278976545
105005.4531024555
106848.13432027823
109267.27078045951
112356.33416329103
116174.88172488887
120724.98452192357
125933.54791820231
131650.03506330895
137662.07393658723
143729.96588566573
149623.75591122406
155153.5584200966
160184.65599774412
164638.48256877565
168479.46758831738
171701.5113900602
174315.88022915708
100746.55746596941
100966.93891157073
101281.61209940913
101726.81675847976
102351.35810059309
103218.64917105804
104407.57271373906
106010.67530274483
108128.09827097006
110855.51576736383
114266.16284713298
118388.8545608427
123188.1740849445
128554.37552289227
134309.25298071987
140230.7263863944
146086.10893879738
151667.946848328
156817.37688533886
161431.0843764949
165459.4500114641
168892.8895420571
171749.98769305696
174085.99034024004
100933.13243824929
101203.05243902282
101586.91393803206
102126.52695700146
102876.90770028676
103907.56717517982
105301.87179984503
107153.1330393313
109555.80484491061
112591.07155754638
116307.52856295872
120701.34042361438
125700.96760743081
131165.26667787659
136897.77028637304
142674.35153577098
148277.49611741045
153526.1731756278
158291.35623749022
162500.49712284165
166131.02177601404
169198.31217425075
171753.56035174674
173918.691629095
101160.38519570253
101488.64618266918
101953.29143503545
102601.71183368228
103494.74810293321
104706.8406746116
106323.72873410251
108436.22502726591
111128.92949019937
114464.14385327218
118462.79892975415
123087.52568314993
128234.59750007046
133738.05885574166
139391.0303136145
144975.7566504597
150294.90677185234
155195.56979854233
159578.38158652393
163399.8154114241
166662.65196668985
169408.81363105495
171738.05127729682
101435.19342628993
101831.40071352733
102389.23511376658
103161.42611352136
104213.85223956897
105624.29695187688
107478.26399031197
109860.43032364416
112841.52249086884
116461.27032123547
120711.11198832652
125521.66327207131
130760.7055081136
136245.5036657238
141766.6837055904
147119.102156093
152129.19852037262
156672.46887443968
160679.35501686225
164132.23539831312
167056.94585332074
169528.07111233112
101764.98047395216
102239.42073631505
102903.41437490107
103814.50109332454
105042.36741835155
106666.1361493275
108768.03518052291
111422.97877896129
114683.98297774588
118565.49571509553
123028.96870956183
127975.52134125923
133250.46639380453
138661.60089903342
144003.537998107
149089.27223302997
153771.01998659968
157952.62604815228
161590.53926020378
164689.93141650804
167295.68077811733
102157.60558288785
102721.03729573911
103504.41768107263
104569.16894577829
105987.21256776855
107836.48811039861
110192.76005841303
113117.49869776305
116642.6675430378
120756.07678877428
125389.92723289531
130419.82655360583
135675.18378928897
140960.34057721056
146080.68541821957
150870.70755158766
155208.3718229985
159023.75655833597
162294.59796959732
165034.66902531072
102621.20259606303
103284.59128689615
104200.42592156176
105432.70053215048
107053.57891700557
109137.00598803816
111748.90411864906
114934.00350621053
118700.78646479093
123009.56056852672
127766.06312740184
132824.88617792664
138005.7157936329
143115.71042055349
147976.3657749829
152444.033389585
156421.91638337183
159858.21365092814
162733.58036500213
103163.9368093579
103938.15136841798
104998.8575976569
106410.99427655587
108244.48753672426
110566.3460754462
113429.31871317628
116858.2686869299
120837.25016387734
125299.47719382646
130126.78868671582
135159.06608785395
140211.6465480174
145100.3376592853
149664.61940230773
153782.11020206285
157372.7191065268
160381.19884854576
103793.76763023106
104689.15674072316
105905.99296093942
107508.03582725553
109560.36078188856
112119.83130591085
115222.83655880929
118872.45464336706
123027.11911889346
127595.10357096104
132439.2432774418
137388.4340115103
142259.88496058257
146881.45832059957
151109.9677047668
154836.08005711672
157970.22307175605
104518.1178003398
105544.04260266216
106926.44017389424
108725.45168660823
110998.29827850465
113788.7426112448
117114.17017016467
120954.07686521736
125241.82180251295
129863.87299021908
134666.8783026514
139475.29600332645
144111.50054604924
148415.49076697466
152252.48654591772
155498.48608251358
105343.46890032897
106507.81047771793
108062.71790479192
110062.03696853209
112552.14488222069
115560.43915244471
119083.33161082899
123076.02184655279
127448.19460171014
132066.91264718282
136767.99853133506
141374.86498427123
145715.46359820865
149632.74271181424
152971.1680418164
106274.95987924843
107583.49012762094
109314.71696395952
111513.08425514559
114211.0976085689
117417.19769193734
121105.28521897811
125205.96802445
129607.43525012002
134160.69828923035
138694.1199014595
143029.29142528088
146992.6212486259
150398.67181042244
107315.90162397592
108771.64265828863
110678.8487542196
113069.62197258597
115959.57448071067
119335.98920901713
123148.79829833964
127305.32284711428
131674.02618410968
136092.00227405876
140380.2776953236
144351.78455804885
147796.5449422452
108467.15459203023
110069.67153803557
112147.92928353003
114718.3658237679
117776.69301909475
121287.46003828412
125176.05666421428
129327.59938319921
133591.50736193007
137791.68155168442
141732.36700817387
145184.33007169885
109726.65228708928
111471.19369651818
113709.73530669558
116439.74234863283
119634.8308668964
123234.870866301
127140.61728548213
131214.85201606172
135287.1805031925
139158.71365811973
142584.3821043507
111088.52421852833
112965.28442473226
115346.654194158
118208.13647546987
121498.68478807247
125132.08215798631
128983.56037959665
132891.38043676404
136655.74732154593
140021.0481941795
112542.45961890488
114535.43436111731
117034.3655175058
119989.61652953732
123323.03852743843
126920.08247823376
130627.42650137813
134247.93609016755
137519.05357558856
114072.59985981516
116158.4808514411
118740.42149774534
121740.08932878525
125049.11763678449
128520.81531618413
131961.14290198934
135104.4582563973
115656.41902802551
117803.09609300166
120421.83797572057
123402.09656880617
126599.23702965012
129822.43938075565
132803.71628415037
117263.37005589974
119427.6530518446
122022.66974551503
124898.5133575946
127862.48704118247
130645.08390567251
118852.59044728521
120976.93496561874
123466.67237998334
126119.39562721393
128660.81639944577
120369.6338732241
122376.4146648663
124646.18446985261
126891.22923855273
121740.90281521129
123520.30779285188
125391.31890403003
122861.84572753804
124242.443547017
123569.30949133828
SCALARS T float 1
LOOKUP_TABLE default
300.1237201913134
300.1234019915344
300.1748383932706
300.1213179120074
300.1746849333405
300.2497303289103
300.11775272883693
300.17176421839656
300.2498670605042
300.35996041931264
300.11297670538187
300.1665910052465
300.2455733336235
300.36056712410533
300.5231272124083
300.10726211905074
300.15962492177437
300.2377503517288
300.35395249105596
300.52445699403273
300.7664265673725
300.100877381446
300.15130455132123
300.2272008304808
300.3417016072901
300.51379302749905
300.76875375879854
301.1327874191568
300.0940753066528
300.1420452005948
300.214668605389
300.325245472203
300.49400066183085
300.7507479180031
301.1360384304144
301.6920561842238
300.0870825166922
300.132226069423
300.2008314167821
300.305881452645
300.4676929027553
300.7178078792378
301.1040638254267
301.69424248758173
302.5632395661457
300.0800927215721
300.1221785793423
300.1862839674713
300.2847463706731
300.4371753803614
300.6748358066007
301.0475775717034
301.63413782248875
302.55437279795746
303.96395167729855
300.073264112612
300.1121797419852
300.1715258103628
300.26279217708543
300.4043755341975
300.62597373203204
300.9759973725912
301.5342330306967
302.4339846164916
303.90278033214554
306.3367026811389
300.06672004695065
300.1024510383382
300.15695894471673
300.2407813659794
300.3708231303822
300.5744853548871
300.89677068363244
301.4128770665911
302.25171455684585
303.64507063934036
306.0583746708226
310.71984698639284
300.06055211465355
300.0931616289478
300.14289252465954
300.2192957168001
300.33767035247456
300.5227917280746
300.81532821532
301.2832366008511
302.04299813469197
303.30312079935806
305.47245167494214
309.5466310666255
319.9486758325744
300.0548244357503
300.0844342200569
300.1295530031692
300.1987592159748
300.3057439668859
300.4725889130049
300.7353659308539
301.1539527938185
301.8299122663019
302.94125878756404
304.81959407937615
308.1678903722436
314.94821051465277
327.97916465813813
300.04957851732377
300.07635229462704
300.1170968541393
300.1794633594636
300.27560147688075
300.4249935541282
300.6592386184137
301.03028572843573
301.625000088728
302.59196840339115
304.194641238168
306.93169459300424
311.8527693475927
320.7178136917323
334.0231402098778
300.04483816488903
300.0689675860924
300.10562369073114
300.1615933862945
300.24759156407583
300.38068502110394
300.58832490639463
300.91515791090154
301.4347208337926
302.26991413205815
303.6299327207651
305.87982493185984
309.6693856375634
316.0986721728761
326.01576037300117
338.79322015459064
300.0406140382542
300.0623074873468
300.09518880705025
300.14525303503285
300.2219061293751
300.3400228215434
300.5233220181926
300.8099588541261
301.26186708345006
301.98044070506336
303.1327918435579
304.9946652342677
308.0113516011288
312.9180917307875
320.4498336345794
330.6740361141243
342.6448766250647
300.0369077964433
300.05638152948376
300.0858146192843
300.13048503560725
300.1986217770205
300.30314389756586
300.4644743513911
300.7151164973736
301.10711955557684
301.72418448873657
302.7008152891806
304.25065982359746
306.69990488822447
310.5749469464578
316.45868423675546
324.6262009956118
334.71363867424407
345.7866786197519
300.0337158489631
300.05118728476344
300.07750038834035
300.11728966494314