# vtk DataFile Version 2.0
JuliaCFD
ASCII
DATASET UNSTRUCTURED_GRID

POINTS 1900 float
0.0 0.0 0.005
0.0 0.0416667 0.005
0.0 0.0833333 0.005
0.0 0.125 0.005
0.0 0.166667 0.005
0.0 0.208333 0.005
0.0 0.25 0.005
0.0 0.291667 0.005
0.0 0.333333 0.005
0.0 0.375 0.005
0.0 0.416667 0.005
0.0 0.458333 0.005
0.0 0.5 0.005
0.0 0.541667 0.005
0.0 0.583333 0.005
0.0 0.625 0.005
0.0 0.666667 0.005
0.0 0.708333 0.005
0.0 0.75 0.005
0.0 0.791667 0.005
0.0 0.833333 0.005
0.0 0.875 0.005
0.0 0.916667 0.005
0.0 0.958333 0.005
0.0 1.0 0.005
0.0409575 0.0 0.005
0.0409401 0.0416667 0.005
0.0409227 0.0833333 0.005
0.0409054 0.125 0.005
0.040888 0.166667 0.005
0.0408706 0.208333 0.005
0.0408532 0.25 0.005
0.0408359 0.291667 0.005
0.0408185 0.333333 0.005
0.0408011 0.375 0.005
0.0407838 0.416667 0.005
0.0407664 0.458333 0.005
0.040749 0.5 0.005
0.0407316 0.541667 0.005
0.0407143 0.583333 0.005
0.0406969 0.625 0.005
0.0406795 0.666667 0.005
0.0406621 0.708333 0.005
0.0406448 0.75 0.005
0.0406274 0.791667 0.005
0.04061 0.833333 0.005
0.0405927 0.875 0.005
0.0405753 0.916667 0.005
0.0405579 0.958333 0.005
0.0405405 1.0 0.005
0.0819149 0.0 0.005
0.0818802 0.0416667 0.005
0.0818455 0.0833333 0.005
0.0818107 0.125 0.005
0.081776 0.166667 0.005
0.0817412 0.208333 0.005
0.0817065 0.25 0.005
0.0816717 0.291667 0.005
0.081637 0.333333 0.005
0.0816022 0.375 0.005
0.0815675 0.416667 0.005
0.0815328 0.458333 0.005
0.081498 0.5 0.005
0.0814633 0.541667 0.005
0.0814285 0.583333 0.005
0.0813938 0.625 0.005
0.081359 0.666667 0.005
0.0813243 0.708333 0.005
0.0812895 0.75 0.005
0.0812548 0.791667 0.005
0.0812201 0.833333 0.005
0.0811853 0.875 0.005
0.0811506 0.916667 0.005
0.0811158 0.958333 0.005
0.0810811 1.0 0.005
0.122872 0.0 0.005
0.12282 0.0416667 0.005
0.122768 0.0833333 0.005
0.122716 0.125 0.005
0.122664 0.166667 0.005
0.122612 0.208333 0.005
0.12256 0.25 0.005
0.122508 0.291667 0.005
0.122455 0.333333 0.005
0.122403 0.375 0.005
0.122351 0.416667 0.005
0.122299 0.458333 0.005
0.122247 0.5 0.005
0.122195 0.541667 0.005
0.122143 0.583333 0.005
0.122091 0.625 0.005
0.122039 0.666667 0.005
0.121986 0.708333 0.005
0.121934 0.75 0.005
0.121882 0.791667 0.005
0.12183 0.833333 0.005
0.121778 0.875 0.005
0.121726 0.916667 0.005
0.121674 0.958333 0.005
0.121622 1.0 0.005
0.16383 0.0 0.005
0.16376 0.0416667 0.005
0.163691 0.0833333 0.005
0.163621 0.125 0.005
0.163552 0.166667 0.005
0.163482 0.208333 0.005
0.163413 0.25 0.005
0.163343 0.291667 0.005
0.163274 0.333333 0.005
0.163204 0.375 0.005
0.163135 0.416667 0.005
0.163066 0.458333 0.005
0.162996 0.5 0.005
0.162927 0.541667 0.005
0.162857 0.583333 0.005
0.162788 0.625 0.005
0.162718 0.666667 0.005
0.162649 0.708333 0.005
0.162579 0.75 0.005
0.16251 0.791667 0.005
0.16244 0.833333 0.005
0.162371 0.875 0.005
0.162301 0.916667 0.005
0.162232 0.958333 0.005
0.162162 1.0 0.005
0.204787 0.0 0.005
0.2047 0.0416667 0.005
0.204614 0.0833333 0.005
0.204527 0.125 0.005
0.20444 0.166667 0.005
0.204353 0.208333 0.005
0.204266 0.25 0.005
0.204179 0.291667 0.005
0.204092 0.333333 0.005
0.204006 0.375 0.005
0.203919 0.416667 0.005
0.203832 0.458333 0.005
0.203745 0.5 0.005
0.203658 0.541667 0.005
0.203571 0.583333 0.005
0.203484 0.625 0.005
0.203398 0.666667 0.005
0.203311 0.708333 0.005
0.203224 0.75 0.005
0.203137 0.791667 0.005
0.20305 0.833333 0.005
0.202963 0.875 0.005
0.202876 0.916667 0.005
0.20279 0.958333 0.005
0.202703 1.0 0.005
0.245745 0.0 0.005
0.245641 0.0416667 0.005
0.245536 0.0833333 0.005
0.245432 0.125 0.005
0.245328 0.166667 0.005
0.245224 0.208333 0.005
0.245119 0.25 0.005
0.245015 0.291667 0.005
0.244911 0.333333 0.005
0.244807 0.375 0.005
0.244703 0.416667 0.005
0.244598 0.458333 0.005
0.244494 0.5 0.005
0.24439 0.541667 0.005
0.244286 0.583333 0.005
0.244181 0.625 0.005
0.244077 0.666667 0.005
0.243973 0.708333 0.005
0.243869 0.75 0.005
0.243764 0.791667 0.005
0.24366 0.833333 0.005
0.243556 0.875 0.005
0.243452 0.916667 0.005
0.243347 0.958333 0.005
0.243243 1.0 0.005
0.286702 0.0 0.005
0.286581 0.0416667 0.005
0.286459 0.0833333 0.005
0.286337 0.125 0.005
0.286216 0.166667 0.005
0.286094 0.208333 0.005
0.285973 0.25 0.005
0.285851 0.291667 0.005
0.285729 0.333333 0.005
0.285608 0.375 0.005
0.285486 0.416667 0.005
0.285365 0.458333 0.005
0.285243 0.5 0.005
0.285121 0.541667 0.005
0.285 0.583333 0.005
0.284878 0.625 0.005
0.284757 0.666667 0.005
0.284635 0.708333 0.005
0.284513 0.75 0.005
0.284392 0.791667 0.005
0.28427 0.833333 0.005
0.284149 0.875 0.005
0.284027 0.916667 0.005
0.283905 0.958333 0.005
0.283784 1.0 0.005
0.32766 0.0 0.005
0.327521 0.0416667 0.005
0.327382 0.0833333 0.005
0.327243 0.125 0.005
0.327104 0.166667 0.005
0.326965 0.208333 0.005
0.326826 0.25 0.005
0.326687 0.291667 0.005
0.326548 0.333333 0.005
0.326409 0.375 0.005
0.32627 0.416667 0.005
0.326131 0.458333 0.005
0.325992 0.5 0.005
0.325853 0.541667 0.005
0.325714 0.583333 0.005
0.325575 0.625 0.005
0.325436 0.666667 0.005
0.325297 0.708333 0.005
0.325158 0.75 0.005
0.325019 0.791667 0.005
0.32488 0.833333 0.005
0.324741 0.875 0.005
0.324602 0.916667 0.005
0.324463 0.958333 0.005
0.324324 1.0 0.005
0.368617 0.0 0.005
0.368461 0.0416667 0.005
0.368305 0.0833333 0.005
0.368148 0.125 0.005
0.367992 0.166667 0.005
0.367835 0.208333 0.005
0.367679 0.25 0.005
0.367523 0.291667 0.005
0.367366 0.333333 0.005
0.36721 0.375 0.005
0.367054 0.416667 0.005
0.366897 0.458333 0.005
0.366741 0.5 0.005
0.366585 0.541667 0.005
0.366428 0.583333 0.005
0.366272 0.625 0.005
0.366116 0.666667 0.005
0.365959 0.708333 0.005
0.365803 0.75 0.005
0.365647 0.791667 0.005
0.36549 0.833333 0.005
0.365334 0.875 0.005
0.365178 0.916667 0.005
0.365021 0.958333 0.005
0.364865 1.0 0.005
0.409575 0.0 0.005
0.409401 0.0416667 0.005
0.409227 0.0833333 0.005
0.409054 0.125 0.005
0.40888 0.166667 0.005
0.408706 0.208333 0.005
0.408532 0.25 0.005
0.408359 0.291667 0.005
0.408185 0.333333 0.005
0.408011 0.375 0.005
0.407838 0.416667 0.005
0.407664 0.458333 0.005
0.40749 0.5 0.005
0.407316 0.541667 0.005
0.407143 0.583333 0.005
0.406969 0.625 0.005
0.406795 0.666667 0.005
0.406621 0.708333 0.005
0.406448 0.75 0.005
0.406274 0.791667 0.005
0.4061 0.833333 0.005
0.405927 0.875 0.005
0.405753 0.916667 0.005
0.405579 0.958333 0.005
0.405405 1.0 0.005
0.450532 0.0 0.005
0.450341 0.0416667 0.005
0.45015 0.0833333 0.005
0.449959 0.125 0.005
0.449768 0.166667 0.005
0.449577 0.208333 0.005
0.449386 0.25 0.005
0.449195 0.291667 0.005
0.449003 0.333333 0.005
0.448812 0.375 0.005
0.448621 0.416667 0.005
0.44843 0.458333 0.005
0.448239 0.5 0.005
0.448048 0.541667 0.005
0.447857 0.583333 0.005
0.447666 0.625 0.005
0.447475 0.666667 0.005
0.447284 0.708333 0.005
0.447093 0.75 0.005
0.446901 0.791667 0.005
0.44671 0.833333 0.005
0.446519 0.875 0.005
0.446328 0.916667 0.005
0.446137 0.958333 0.005
0.445946 1.0 0.005
0.49149 0.0 0.005
0.491281 0.0416667 0.005
0.491073 0.0833333 0.005
0.490864 0.125 0.005
0.490656 0.166667 0.005
0.490447 0.208333 0.005
0.490239 0.25 0.005
0.49003 0.291667 0.005
0.489822 0.333333 0.005
0.489613 0.375 0.005
0.489405 0.416667 0.005
0.489197 0.458333 0.005
0.488988 0.5 0.005
0.48878 0.541667 0.005
0.488571 0.583333 0.005
0.488363 0.625 0.005
0.488154 0.666667 0.005
0.487946 0.708333 0.005
0.487737 0.75 0.005
0.487529 0.791667 0.005
0.48732 0.833333 0.005
0.487112 0.875 0.005
0.486903 0.916667 0.005
0.486695 0.958333 0.005
0.486486 1.0 0.005
0.531954 0.00563435 0.005
0.531749 0.0470663 0.005
0.531544 0.0884982 0.005
0.531338 0.12993 0.005
0.531133 0.171362 0.005
0.530928 0.212794 0.005
0.530722 0.254226 0.005
0.530517 0.295658 0.005
0.530312 0.33709 0.005
0.530107 0.378521 0.005
0.529901 0.419953 0.005
0.529696 0.461385 0.005
0.529491 0.502817 0.005
0.529285 0.544249 0.005
0.52908 0.585681 0.005
0.528875 0.627113 0.005
0.528669 0.668545 0.005
0.528464 0.709977 0.005
0.528259 0.751409 0.005
0.528054 0.79284 0.005
0.527848 0.834272 0.005
0.527643 0.875704 0.005
0.527438 0.917136 0.005
0.527232 0.958568 0.005
0.527027 1.0 0.005
0.572289 0.0127465 0.005
0.572093 0.0538821 0.005
0.571896 0.0950177 0.005
0.571699 0.136153 0.005
0.571502 0.177289 0.005
0.571306 0.218424 0.005
0.571109 0.25956 0.005
0.570912 0.300695 0.005
0.570715 0.341831 0.005
0.570519 0.382967 0.005
0.570322 0.424102 0.005
0.570125 0.465238 0.005
0.569928 0.506373 0.005
0.569732 0.547509 0.005
0.569535 0.588644 0.005
0.569338 0.62978 0.005
0.569142 0.670916 0.005
0.568945 0.712051 0.005
0.568748 0.753187 0.005
0.568551 0.794322 0.005
0.568355 0.835458 0.005
0.568158 0.876593 0.005
0.567961 0.917729 0.005
0.567764 0.958864 0.005
0.567568 1.0 0.005
0.612625 0.0198587 0.005
0.612436 0.0606979 0.005
0.612248 0.101537 0.005
0.61206 0.142376 0.005
0.611872 0.183216 0.005
0.611684 0.224055 0.005
0.611496 0.264894 0.005
0.611307 0.305733 0.005
0.611119 0.346572 0.005
0.610931 0.387412 0.005
0.610743 0.428251 0.005
0.610555 0.46909 0.005
0.610366 0.509929 0.005
0.610178 0.550769 0.005
0.60999 0.591608 0.005
0.609802 0.632447 0.005
0.609614 0.673286 0.005
0.609425 0.714125 0.005
0.609237 0.754965 0.005
0.609049 0.795804 0.005
0.608861 0.836643 0.005
0.608673 0.877482 0.005
0.608484 0.918322 0.005
0.608296 0.959161 0.005
0.608108 1.0 0.005
0.65296 0.0269708 0.005
0.65278 0.0675137 0.005
0.652601 0.108057 0.005
0.652421 0.148599 0.005
0.652241 0.189142 0.005
0.652062 0.229685 0.005
0.651882 0.270228 0.005
0.651702 0.310771 0.005
0.651523 0.351314 0.005
0.651343 0.391857 0.005
0.651164 0.4324 0.005
0.650984 0.472943 0.005
0.650804 0.513485 0.005
0.650625 0.554028 0.005
0.650445 0.594571 0.005
0.650265 0.635114 0.005
0.650086 0.675657 0.005
0.649906 0.7162 0.005
0.649726 0.756743 0.005
0.649547 0.797286 0.005
0.649367 0.837828 0.005
0.649188 0.878371 0.005
0.649008 0.918914 0.005
0.648828 0.959457 0.005
0.648649 1.0 0.005
0.693295 0.034083 0.005
0.693124 0.0743295 0.005
0.692953 0.114576 0.005
0.692782 0.154823 0.005
0.692611 0.195069 0.005
0.69244 0.235316 0.005
0.692269 0.275562 0.005
0.692098 0.315809 0.005
0.691926 0.356055 0.005
0.691755 0.396302 0.005
0.691584 0.436548 0.005
[...]
CELL_DATA 888
SCALARS P float 1
LOOKUP_TABLE default
100147.33283671529
100146.98381730502
100207.4959901445
100144.57872892023
100207.36823897409
100294.92124947737
100140.44888900545
100204.02940292704
100295.19470329104
100422.3570627319
100134.90677638254
100198.07706524825
100290.3507720787
100423.3140198326
100608.82149835584
100128.26656698149
100190.04043920753
100281.43099441973
100415.97845819796
100610.91703263282
100883.05474050294
100120.83816137302
100180.42285778618
100269.35390148552
100402.17006872942
100599.33580655424
100886.96696555545
101289.3971960074
100112.9140421339
100169.70112544959
100254.96727078635
100383.51298106172
100577.33773969591
100867.87778840485
101295.8583964072
101898.63785011263
100104.75715348356
100158.31170076833
100239.04397105928
100361.47365028986
100547.85919816313
100831.8608681098
101262.81022466588
101907.23166575155
102830.62336609636
100096.59306756197
100146.63753061357
100222.26448334949
100337.33860650893
100513.48188508845
100784.3636268869
101202.15237541118
101846.52267397978
102834.18437480573
104308.7932720575
100088.60680422928
100135.00026056598
100205.203432696
100312.1902441063
100476.36925414915
100729.97781309803
101124.23014225152
101741.17483842831
102714.37835631083
104269.58880716322
106815.10752821567
100080.94341952182
100123.65858460893
100188.32636212581
100286.90183617201
100438.24984361634
100672.33698625019
101037.21992931931
101611.1389837374
102525.13323672312
104013.00583786314
106561.28939507426
111608.09631433933
100073.71135967993
100112.81152588497
100171.994288744
100262.14604417262
100400.43876917698
100614.1621798492
100947.12495440552
101470.75571293524
102304.72242862
103660.91944168582
105964.56417746046
110347.3251079468
122776.87574979021
100066.98727313483
100102.60481056264
100156.47444099018
100238.41907191015
100363.89271507274
100557.38742142002
100858.08711793828
101329.53488015696
102077.08321870405
103282.7486406479
105289.34615125369
108872.16013284991
116520.78821754905
133136.291440719
100060.82151412469
100093.13889819129
100141.95408178956
100216.06762581476
100329.26899441172
100503.31286052759
100772.80359558087
101193.3856050173
101856.02784139373
102913.69182969959
104637.89537306562
107565.06491996547
112957.44796204925
123419.10996836568
141266.8953118315
100055.24375300953
100084.47738238925
100128.55498635734
100195.31734062465
100296.99020753794
100452.75491193452
100692.90963243779
101065.71329042269
101648.91879968422
102570.0387907309
104044.77941191253
106459.03408615105
110558.90677431911
117812.051894319
130024.42166834284
147873.67499386778
100050.26821300389
100076.65540729114
100116.34746133925
100176.30000992904
100267.30047727739
100406.17099631544
100619.28831301957
100948.26024874861
101459.20358488343
102258.23714878746
103518.30244000672
105527.99349090808
108780.60615885667
114183.05389500837
122957.18184702934
136048.4595280369
153333.05656060128
100045.89846116144
100069.68707979443
100105.36327621275
100159.07636297117
100240.31075170869
100363.76434682541
100552.31297950364
100841.70451741481
101288.03443506564
101979.72199592036
103056.80357722884
104742.04365317733
107388.00557250467
111606.73696439741
118232.0915886106
128066.55154293469
141442.05987657525
157875.02914346082
100042.13176720614
100063.5722752871
100095.60675622831
100143.65698971611
100216.03958136107
100325.56225129862
100492.01620999534
100746.05585294415
101135.25025976985
101733.43954045947
102655.05499972512
104076.19499847594
106262.52098532734
109657.16133403132
114856.46689120759
122487.50387800421
132964.5349821111
146228.41059999043
161658.37389565218
100038.96297135232
100058.30268467544
100087.0642879861
100130.01811846135
100194.44203858219
100291.47715657408
100438.21896592477
100660.93352032285
100999.97225671362
101517.18130048452
102306.79696049602
103510.51185317094
105335.77314859127
108119.92765070916
112311.36191941859
118402.26947135178
126782.87639887705
137560.8103163076
150450.50769696155
164802.74537645062
100036.3883466747
100053.8672646294
100079.71308570345
100118.1161418377
100175.43575547532
100261.35095843826
100390.61734103049
100585.73780041432
100880.97276079077
101328.278254215
102005.76734405037
103028.9725626629
104563.83058862064
106876.12529878884
110316.78609164139
115282.27054521485
122121.43018280061
131001.32117581589
141813.6048819549
154155.8465761708
167403.17603892574
100034.40998784946
100050.2577729934
100073.52855420839
100107.89825403858
100158.91755642356
100234.98883837355
100348.84390351993
100519.76555011266
100776.88450725071
101163.97093971266
101746.14091498664
102618.54535463064
103916.19115016075
105853.21314354578
108712.23296462669
112820.62579918589
118489.0604456621
125908.99288810206
135064.1183357519
145708.05440038705
157391.2731751872
169538.41612534822
100033.04170721192
100047.47549158124
100068.49228952323
100099.31385544539
100144.78105518191
100212.18425798067
100312.50933439047
100462.2897577167
100686.32909929
101021.60781334947
101522.6696642509
102268.49407539879
103370.26247364198
105003.11974192543
107399.05704343876
110833.05675379402
115582.93454943264
121850.88876882002
129680.84640027242
138920.59082477418
149244.82009964337
160201.62444590454
171275.71167081728
100032.31903156823
100045.54094896761
100064.6021559483
100092.32503614787
100132.92915927286
100192.73851192459
100281.23335609588
100412.60148450856
100607.99600195371
100898.74367704216
101330.72252587022
101969.9044472625
102908.67344791615
104291.82579490662
106312.0361368952
109202.83020674835
113212.79760560645
118546.96851816129
125293.35218279644
133372.04384567591
142539.59489996042
152434.52331092852
162629.47805355568
172673.66745349066
100044.51088550569
100061.88719989017
100086.92133929954
100123.29002008002
100176.47787631703
100254.66821578381
100370.04666858504
100540.6814068394
100793.175290263
101166.26017628459
101715.33875590004
102517.71016983961
103693.94813916372
105405.41133693133
107851.53003581699
111254.12595381997
115815.03698467878
121653.9537953821
128751.93505683796
136934.13026664214
145903.46107560868
155292.74514801215
164714.61128711412
173780.86838498374
100060.43380850164
100083.14138405997
100115.83606214361
100163.27351449952
100232.51942584092
100334.04759254522
100483.31435491625
100702.96489019912
101025.80635421822
101498.56736208327
102186.29686403628
103189.95608256463
104645.41819453133
106723.4781296985
109621.21332771477
113532.2471815713
118597.01125766186
124847.15455458613
132172.3399757382
140331.8900242387
149004.68922566934
157838.807234204
166493.53025221228
174642.28375656897
100081.11092987953
100110.61548473143
100153.06763350824
100214.56743084043
100304.12355387033
100434.97611768721
100626.44145611765
100906.39041872432
101314.38837835427
101905.42440323204
102764.41869934848
104006.21426679863
105777.30653415128
108251.9282105752
111611.93115463144
116008.69912112516
121513.23338838793
128074.58806811713
135510.63667172633
143541.09801315545
151842.9668020514
160093.37084262318
168000.99199425732
175292.03696047055
100107.80498723485
100145.91581952685
100200.70412563597
100279.91958185333
100394.91565238562
100562.19929205756
100805.50944756836
101158.45690898602
101667.71239666005
102404.95847475002
103467.55008672112
104981.2499176202
107099.34917733613
109989.70295138266
113806.7734944522
118649.53743115765
124518.17487609775
131289.97890934822
138731.8741435966
146546.19298041196
154423.35104962776
162078.34949820873
169265.4968320554
175764.13299555445
100142.06005048746
100190.98801231368
100261.24788274402
100362.57879208743
100509.10635483814
100721.09436652208
101027.17828221196
101467.1033999215
102101.55245569652
103013.27257526432
104310.27930238524
106126.85778151322
108615.91383372922
111928.93051151183
116182.54704973492
121417.89717597702
127568.26480090537
134453.6148162349
141809.42430610777
149338.39667698235
156754.57432805267
163814.6076513585
170316.77817441706
176083.49747414433
100185.74454840427
100248.16329459817
100337.66097915448
100466.3318868854
100651.5010108684
100917.62164169156
101298.63712744626
101846.06775391706
102630.37103229461
103744.34930765281
105305.2972145574
107450.94145735634
110325.76269713252
114055.44128607353
118711.36705005703
124275.76248530798
130623.29692268473
137532.079620856
144723.59194045002
151913.38472180185
158847.34120130012
165322.22949473292
171177.42273204855
176276.97602073997
100241.09643937707
100320.20241089918
100433.40487544273
100595.52513371386
100827.48179421357
101158.32347994423
101631.895790987
102308.29802591445
103267.28636527201
104611.06196299783
106462.6413321193
108956.98423975166
112222.08462558505
116349.79906984515
121362.19903748782
127185.68248164195
133647.03063179145
140497.98683839932
147460.52281151514
154271.97018984132
160713.71277836675
166620.94157839302
171870.9143837283
176359.44679455235
100310.76652406371
100410.33781273568
100552.47162432194
100755.07080940234
101043.03694370999
101453.73900964166
102038.52315972689
102865.96168950335
104024.93163881014
105624.57950496257
107788.99471846024
110643.74068070584
114292.7259112091
118788.26674436948
124102.29631213838
130111.715626271
136607.6337738777
143329.84245209926
150011.2371752979
156417.03008734953
162365.91256876002
167729.021276074
172415.61535740754
176354.22021131098
100397.86230538739
100522.31209028438
100699.40982937832
100950.49978595639
101307.47447876088
101814.23442737541
102529.7444936471
103531.17065357382
104914.88164619224
106793.60660881078
109287.21196949705
112505.12469849162
116520.87867694642
121343.93515773963
126898.48252632082
133020.54923184158
139477.83236656658
146009.80476571212
152369.90465688423
158354.4268938808
163817.09705861672
168662.89113279022
172829.73153882162
176272.4078632757
100505.98886402968
100660.41480753089
100879.38760770083
101190.12058338913
101630.13438131109
102250.12712639407
103116.99823409735
104315.49632943663
105947.0682580958
108123.9121629091
110956.01932649847
114530.46340852609
118885.72036024094
123987.80728809808
129718.15162555357
135881.27109799345
142234.53060755352
148526.02288372032
154534.51424804673
160089.91794890657
165079.12026678855
169437.01316102248
173128.42616274618
176132.9216730309
100639.29394569888
100829.55660924075
101099.93023669448
101482.40218778724
102020.49532027777
102772.12455878865
103811.54249606261
105229.40675663485
107129.18076120892
109617.8657645819
112789.86244831259
116704.7195430051
121363.24855906145
126689.75098972276
132529.9844260663
138667.29749065344
144857.76626729534
150867.71408011575
156504.14461510695
161629.67446981452
166163.1765655308
170065.8352568953
173327.49217284223
175954.46761401222
100802.54554296666
101036.69314638739
101368.80384046234
101836.08757122258
102488.54756364744
103391.02627298846
104624.03384205115
106281.83875646874
108466.20463207539
111274.0219787446
114778.96032706069
119009.11066311244
123926.96081750497
129419.36972451679
135303.84069127444
141353.7340057532
147332.116196834
153027.94845091496
158279.35113258162
162980.47068923607
167078.89584875485
170561.48183823543
173442.50135425874
175772.0876855309
101002.38647680653
101289.08469783132
101694.14281273128
102260.50021619101
103044.53763126432
104117.34876000203
105564.0264855406
107479.59701889059
109959.95503570627
113087.0975906961
116909.40461856636
121421.49450058598
126548.8598096314
132146.22609876684
138012.37298343622
143918.4528778709
149642.77834235417
155000.86871269508
159860.78581786287
164147.44914142598
167835.05199233672
170935.16949690337
173494.39802656596
175629.7719441308
101245.77998998931
101594.40696349242
102084.70031369945
102765.34415865982
103698.70342080928
104960.9231812136
106639.50711055103
108826.87274272573
111608.74171530307
115047.66441436905
119163.5715083846
123916.6415061905
129199.32719785374
134840.89791308244
140629.38843572413
146342.28648979607
151778.20761863125
156780.91421408072
161248.2696323445
165133.8294144072
168436.8817818096
171195.24375085597
173504.27332650803
101540.14554204674
101960.96133777851
102549.67089537469
103360.45730027597
104460.86153462075
105930.44350035893
107856.42109246863
110324.83735945816
113407.06718139583
117142.36723253684
121520.27684747361
126468.02016152156
131848.75415519814
137474.45667936627
143130.4751094061
148606.962159721
153726.4504463407
158361.2367219227
162438.9145596158
165938.53271547504
168882.2293231144
171340.64073431448
101893.52077314403
102397.54629695596
103098.49491732565
104055.50672062793
105340.0266268156
107032.95383377981
109218.06360378339
111971.25024339194
115345.53604573538
119354.03226217993
123955.31183010085
129046.17529746288
134466.61575549416
140018.7674282273
145491.90347939773
150694.43394144328
155474.8193261793
159733.81300241148
163424.60938288155
166548.92119939654
169148.05594332732
102314.45174777818
102913.25313130973
103740.58642977882
104859.58809608177
106343.97442547035
108273.35692105528
110724.74398334498
113760.03131892243
117410.382080941
121661.2905720743
126441.06581215066
131620.13360473228
137022.0194550811
142445.1783418061
147689.7053227187
152585.66876739296
157007.45889839905
160881.8270161155
164183.12366012545
166921.8195170593
102811.82676186899
103517.23837022796
104484.98385646478
105780.83264659047
107478.69258197598
109653.94828822537
112373.29855945743
115681.17062787722
119584.294919461
124039.60076574952
128947.94154630824
134157.97613879986
139483.09431974698
144724.4919598791
149698.50297368507
154257.23296397613
158300.41517196485
161772.63161094385
164651.41693936387
103394.61994261925
104218.42225664273
105339.96509018757
106825.95140944574
108747.88022213201
111173.81775923037
114156.64212453867
117720.01497557067
121845.17465761182
126460.86202740474
131443.10871551794
136625.26059238805
141816.11654569744
146825.56921292128
151488.10792440205
155677.4053332346
159309.58658935098
162326.14560344
104071.63659060614
105025.0996597676
106312.6298091047
107999.63302104316
110152.44679364284
112828.43115969213
116063.27650399027
119857.81233200873
124166.51059066832
128892.11062659796
133890.8448546445
138984.63304688004
143984.06938524006
148711.25729007015
153018.32144748242
156791.88728864543
159938.90362023274
104851.15284038972
105944.52535448356
107408.30465933887
109304.02752283071
111689.69632224535
114608.82233618494
118077.09141392654
122070.58450396151
126517.53117398772
131297.89602407345
136251.0786868574
141194.32221476108
145943.4566183026
150332.97023496235
154223.61545562174
157487.46952681776
105740.46788459507
106982.42936139715
108630.05957284642
110738.19062944452
113353.30993291206
116501.62192199384
120176.68794697245
124329.06030330631
128862.17077909611
133635.73772123753
138477.89894767478
143204.78862924644
147638.00512057592
151615.36800554974
154976.9044339789
106745.4504214688
108142.40626679381
109978.08195103086
112297.30734495363
115131.83005414161
118487.77802708073
122334.94104238368
126598.03398944573
131157.9735852508
135857.77910258636
140517.8887022063
144952.71121104315
148982.72378682782
152417.40069235268
107869.98445712506
109425.33651252052
111448.72042392014
113971.82272289594
117008.43015852108
120542.24344323312
124517.76019465517
128835.23037260704
133354.9814667065
137905.67402428706
142300.3872184916
146345.18471765934
149824.28977686103
109115.25834033708
110828.59532366604
113034.27093751407
115747.29203200398
118960.28869583523
122632.8610175412
126683.64858575401
130989.63836561448
135391.4541354399
139704.35841187838
143724.80138402956
147216.934049052
110479.1975086181
112345.31789016639
114721.40458461839
117602.26262724241
120957.03333212683
124719.22045247156
128781.58364555052
132997.90008907512
137188.55213215208
141145.99519980728
144617.58459186213
111955.46789262671
113963.52111483534
116490.70103907534
119508.44152169046
122959.72541347932
126750.57148824036
130747.11901603104
134777.96298207375
138633.85426812328
142050.60521743947
113532.72694138704
115664.93840235593
118315.21626225134
121428.29814180279
124918.5317099207
128662.29413173598
132496.26526671316
136213.16396814742
139540.85638617593
115193.38912792408
117423.83292166598
120158.95368553739
123313.13487882925
126769.00909098823
130369.65186040806
133910.27177508915
137114.68084345458
116912.38163126312
119205.3684468721
121974.3484663107
125099.80769356599
128426.6837520708
131752.89723029148
134798.96960851335
118655.68036422807
120963.37399434841
123699.76869914685
126704.31413894646
129772.54908826179
132622.60359418587
120377.90548227075
122636.951341575
125252.04417678456
128008.46008458508
130618.67864156775
122018.94130369525
124144.63570475191
126515.16512690372
128828.6198958959
123498.25167909077
125372.23114262604
127308.9393892871
124702.84953361428
126143.1466796125
125459.11608372162
SCALARS T float 1
LOOKUP_TABLE default
300.1271703173699
300.1268492717246
300.1795841479576
300.1247472626763
300.1794292280287
300.2561792465855
300.1211511237421
300.1764842440438
300.2563170138667
300.3686483425811
300.1163328485692
300.1712676237317
300.25199001072764
300.3692599740104
300.53476086799105
300.11056638864625
300.16424189856485
300.24410546854926
300.36259872112464
300.5361012881659
300.7819406707575
300.10412184302504
300.155848290845
300.23347087612603
300.35025926019466
300.52537020922205
300.78428652100706
301.1534201100455
300.0972537167665
300.14650465192915
300.22083430013225
300.3336803596451
300.50544821478223
300.7661810539821
301.1567002398068
301.7194446849694
300.09019028935825
300.13659265629155
300.20687742711175
300.3141662227544
300.4789610174643
300.73304775536303
301.1245727106487
301.7216715925337
302.59953113017207
300.0831268559203
300.12644610230035
300.1921986774151
300.2928598861778
300.44822539529935
300.6898099391246
301.0677928331978
301.66132399334106
302.5907106513075
304.0119028694642
300.0762230906266
300.1163442399796
300.1773010709917
300.2707189604323
300.4151786502334
300.6406279742517
300.9958142369332
301.5609653824233
302.4699242707658
303.95075579865596
306.39968099547264
300.06960371168367
300.1065106181728
300.1625897952232
300.24851105754186
300.3813592286251
300.5887812575917
300.916114670116
301.43900669897175
302.2869448854848
303.69238080337755
306.1212732831751
310.8014895830242
300.063361539979
300.09711627743457
300.14837688987933
300.2268225077029
300.34792684810515
300.5367040867191
300.8341496750626
301.30866431317077
302.0773145763551
303.3493246526195
305.53425319712153
309.6279447558884
320.05160037066645
300.0575617953605
300.0882856098167
300.13489138380123
300.2060813080532
300.3157147638779
300.4861035550634
300.753635131762
301.17861776053047
301.86318930838803
302.98609078949016
304.8797176461749
308.247544483818
315.0507695952136
328.1042384660604
300.05224695908504
300.08010359417
300.1222920267
300.1865824524824
300.2852859964762
300.438105401909
300.6769416379157
301.05415625027484
301.6571691372422
302.63528101619505
304.25276618831185
307.0089816009159
311.9533645513207
320.8434996343631
334.1714587436257
300.0474416950471
300.0726232797841
300.1106804240404
300.1685142018422
300.2569939001795
300.39339647136813
300.6054603067881
300.93822423272815
301.46575393615666
302.31163873101167
303.6858976260824
305.95436486007316
309.7670680844218
316.22287878594875
326.16628094203145
338.96637616947316
300.04315741810086
300.0658732128114
300.10011360292714
300.1519828955366
300.231034321293
300.35234238201593
300.5398981849767
300.8322277202468
301.2917653096132
302.02056197957404
303.1865363999167
305.06627433054416
308.1055842466309
313.0393562909375
320.60003898299834
330.8512717924061
342.84475900185595
300.039396453763
300.05986393254506
300.09061548282153
300.13703348647334
300.2074871678566
300.3150850754395
300.48050743418827
300.73660711418665
301.1359048363954
301.76272355898993
302.75234527148
304.31927968003595
306.7904125476321
310.69236021602
316.606537443472
324.8047232159975
334.91968584201817
346.01540179999773
300.0361558066877
300.0545938968467
300.08218662820605
300.12366815705815