# vtk DataFile Version 2.0
JuliaCFD
ASCII
DATASET UNSTRUCTURED_GRID

POINTS 1900 float
0.0 0.0 0.005
0.0 0.0416667 0.005
0.0 0.0833333 0.005
0.0 0.125 0.005
0.0 0.166667 0.005
0.0 0.208333 0.005
0.0 0.25 0.005
0.0 0.291667 0.005
0.0 0.333333 0.005
0.0 0.375 0.005
0.0 0.416667 0.005
0.0 0.458333 0.005
0.0 0.5 0.005
0.0 0.541667 0.005
0.0 0.583333 0.005
0.0 0.625 0.005
0.0 0.666667 0.005
0.0 0.708333 0.005
0.0 0.75 0.005
0.0 0.791667 0.005
0.0 0.833333 0.005
0.0 0.875 0.005
0.0 0.916667 0.005
0.0 0.958333 0.005
0.0 1.0 0.005
0.0409575 0.0 0.005
0.0409401 0.0416667 0.005
0.0409227 0.0833333 0.005
0.0409054 0.125 0.005
0.040888 0.166667 0.005
0.0408706 0.208333 0.005
0.0408532 0.25 0.005
0.0408359 0.291667 0.005
0.0408185 0.333333 0.005
0.0408011 0.375 0.005
0.0407838 0.416667 0.005
0.0407664 0.458333 0.005
0.040749 0.5 0.005
0.0407316 0.541667 0.005
0.0407143 0.583333 0.005
0.0406969 0.625 0.005
0.0406795 0.666667 0.005
0.0406621 0.708333 0.005
0.0406448 0.75 0.005
0.0406274 0.791667 0.005
0.04061 0.833333 0.005
0.0405927 0.875 0.005
0.0405753 0.916667 0.005
0.0405579 0.958333 0.005
0.0405405 1.0 0.005
0.0819149 0.0 0.005
0.0818802 0.0416667 0.005
0.0818455 0.0833333 0.005
0.0818107 0.125 0.005
0.081776 0.166667 0.005
0.0817412 0.208333 0.005
0.0817065 0.25 0.005
0.0816717 0.291667 0.005
0.081637 0.333333 0.005
0.0816022 0.375 0.005
0.0815675 0.416667 0.005
0.0815328 0.458333 0.005
0.081498 0.5 0.005
0.0814633 0.541667 0.005
0.0814285 0.583333 0.005
0.0813938 0.625 0.005
0.081359 0.666667 0.005
0.0813243 0.708333 0.005
0.0812895 0.75 0.005
0.0812548 0.791667 0.005
0.0812201 0.833333 0.005
0.0811853 0.875 0.005
0.0811506 0.916667 0.005
0.0811158 0.958333 0.005
0.0810811 1.0 0.005
0.122872 0.0 0.005
0.12282 0.0416667 0.005
0.122768 0.0833333 0.005
0.122716 0.125 0.005
0.122664 0.166667 0.005
0.122612 0.208333 0.005
0.12256 0.25 0.005
0.122508 0.291667 0.005
0.122455 0.333333 0.005
0.122403 0.375 0.005
0.122351 0.416667 0.005
0.122299 0.458333 0.005
0.122247 0.5 0.005
0.122195 0.541667 0.005
0.122143 0.583333 0.005
0.122091 0.625 0.005
0.122039 0.666667 0.005
0.121986 0.708333 0.005
0.121934 0.75 0.005
0.121882 0.791667 0.005
0.12183 0.833333 0.005
0.121778 0.875 0.005
0.121726 0.916667 0.005
0.121674 0.958333 0.005
0.121622 1.0 0.005
0.16383 0.0 0.005
0.16376 0.0416667 0.005
0.163691 0.0833333 0.005
0.163621 0.125 0.005
0.163552 0.166667 0.005
0.163482 0.208333 0.005
0.163413 0.25 0.005
0.163343 0.291667 0.005
0.163274 0.333333 0.005
0.163204 0.375 0.005
0.163135 0.416667 0.005
0.163066 0.458333 0.005
0.162996 0.5 0.005
0.162927 0.541667 0.005
0.162857 0.583333 0.005
0.162788 0.625 0.005
0.162718 0.666667 0.005
0.162649 0.708333 0.005
0.162579 0.75 0.005
0.16251 0.791667 0.005
0.16244 0.833333 0.005
0.162371 0.875 0.005
0.162301 0.916667 0.005
0.162232 0.958333 0.005
0.162162 1.0 0.005
0.204787 0.0 0.005
0.2047 0.0416667 0.005
0.204614 0.0833333 0.005
0.204527 0.125 0.005
0.20444 0.166667 0.005
0.204353 0.208333 0.005
0.204266 0.25 0.005
0.204179 0.291667 0.005
0.204092 0.333333 0.005
0.204006 0.375 0.005
0.203919 0.416667 0.005
0.203832 0.458333 0.005
0.203745 0.5 0.005
0.203658 0.541667 0.005
0.203571 0.583333 0.005
0.203484 0.625 0.005
0.203398 0.666667 0.005
0.203311 0.708333 0.005
0.203224 0.75 0.005
0.203137 0.791667 0.005
0.20305 0.833333 0.005
0.202963 0.875 0.005
0.202876 0.916667 0.005
0.20279 0.958333 0.005
0.202703 1.0 0.005
0.245745 0.0 0.005
0.245641 0.0416667 0.005
0.245536 0.0833333 0.005
0.245432 0.125 0.005
0.245328 0.166667 0.005
0.245224 0.208333 0.005
0.245119 0.25 0.005
0.245015 0.291667 0.005
0.244911 0.333333 0.005
0.244807 0.375 0.005
0.244703 0.416667 0.005
0.244598 0.458333 0.005
0.244494 0.5 0.005
0.24439 0.541667 0.005
0.244286 0.583333 0.005
0.244181 0.625 0.005
0.244077 0.666667 0.005
0.243973 0.708333 0.005
0.243869 0.75 0.005
0.243764 0.791667 0.005
0.24366 0.833333 0.005
0.243556 0.875 0.005
0.243452 0.916667 0.005
0.243347 0.958333 0.005
0.243243 1.0 0.005
0.286702 0.0 0.005
0.286581 0.0416667 0.005
0.286459 0.0833333 0.005
0.286337 0.125 0.005
0.286216 0.166667 0.005
0.286094 0.208333 0.005
0.285973 0.25 0.005
0.285851 0.291667 0.005
0.285729 0.333333 0.005
0.285608 0.375 0.005
0.285486 0.416667 0.005
0.285365 0.458333 0.005
0.285243 0.5 0.005
0.285121 0.541667 0.005
0.285 0.583333 0.005
0.284878 0.625 0.005
0.284757 0.666667 0.005
0.284635 0.708333 0.005
0.284513 0.75 0.005
0.284392 0.791667 0.005
0.28427 0.833333 0.005
0.284149 0.875 0.005
0.284027 0.916667 0.005
0.283905 0.958333 0.005
0.283784 1.0 0.005
0.32766 0.0 0.005
0.327521 0.0416667 0.005
0.327382 0.0833333 0.005
0.327243 0.125 0.005
0.327104 0.166667 0.005
0.326965 0.208333 0.005
0.326826 0.25 0.005
0.326687 0.291667 0.005
0.326548 0.333333 0.005
0.326409 0.375 0.005
0.32627 0.416667 0.005
0.326131 0.458333 0.005
0.325992 0.5 0.005
0.325853 0.541667 0.005
0.325714 0.583333 0.005
0.325575 0.625 0.005
0.325436 0.666667 0.005
0.325297 0.708333 0.005
0.325158 0.75 0.005
0.325019 0.791667 0.005
0.32488 0.833333 0.005
0.324741 0.875 0.005
0.324602 0.916667 0.005
0.324463 0.958333 0.005
0.324324 1.0 0.005
0.368617 0.0 0.005
0.368461 0.0416667 0.005
0.368305 0.0833333 0.005
0.368148 0.125 0.005
0.367992 0.166667 0.005
0.367835 0.208333 0.005
0.367679 0.25 0.005
0.367523 0.291667 0.005
0.367366 0.333333 0.005
0.36721 0.375 0.005
0.367054 0.416667 0.005
0.366897 0.458333 0.005
0.366741 0.5 0.005
0.366585 0.541667 0.005
0.366428 0.583333 0.005
0.366272 0.625 0.005
0.366116 0.666667 0.005
0.365959 0.708333 0.005
0.365803 0.75 0.005
0.365647 0.791667 0.005
0.36549 0.833333 0.005
0.365334 0.875 0.005
0.365178 0.916667 0.005
0.365021 0.958333 0.005
0.364865 1.0 0.005
0.409575 0.0 0.005
0.409401 0.0416667 0.005
0.409227 0.0833333 0.005
0.409054 0.125 0.005
0.40888 0.166667 0.005
0.408706 0.208333 0.005
0.408532 0.25 0.005
0.408359 0.291667 0.005
0.408185 0.333333 0.005
0.408011 0.375 0.005
0.407838 0.416667 0.005
0.407664 0.458333 0.005
0.40749 0.5 0.005
0.407316 0.541667 0.005
0.407143 0.583333 0.005
0.406969 0.625 0.005
0.406795 0.666667 0.005
0.406621 0.708333 0.005
0.406448 0.75 0.005
0.406274 0.791667 0.005
0.4061 0.833333 0.005
0.405927 0.875 0.005
0.405753 0.916667 0.005
0.405579 0.958333 0.005
0.405405 1.0 0.005
0.450532 0.0 0.005
0.450341 0.0416667 0.005
0.45015 0.0833333 0.005
0.449959 0.125 0.005
0.449768 0.166667 0.005
0.449577 0.208333 0.005
0.449386 0.25 0.005
0.449195 0.291667 0.005
0.449003 0.333333 0.005
0.448812 0.375 0.005
0.448621 0.416667 0.005
0.44843 0.458333 0.005
0.448239 0.5 0.005
0.448048 0.541667 0.005
0.447857 0.583333 0.005
0.447666 0.625 0.005
0.447475 0.666667 0.005
0.447284 0.708333 0.005
0.447093 0.75 0.005
0.446901 0.791667 0.005
0.44671 0.833333 0.005
0.446519 0.875 0.005
0.446328 0.916667 0.005
0.446137 0.958333 0.005
0.445946 1.0 0.005
0.49149 0.0 0.005
0.491281 0.0416667 0.005
0.491073 0.0833333 0.005
0.490864 0.125 0.005
0.490656 0.166667 0.005
0.490447 0.208333 0.005
0.490239 0.25 0.005
0.49003 0.291667 0.005
0.489822 0.333333 0.005
0.489613 0.375 0.005
0.489405 0.416667 0.005
0.489197 0.458333 0.005
0.488988 0.5 0.005
0.48878 0.541667 0.005
0.488571 0.583333 0.005
0.488363 0.625 0.005
0.488154 0.666667 0.005
0.487946 0.708333 0.005
0.487737 0.75 0.005
0.487529 0.791667 0.005
0.48732 0.833333 0.005
0.487112 0.875 0.005
0.486903 0.916667 0.005
0.486695 0.958333 0.005
0.486486 1.0 0.005
0.531954 0.00563435 0.005
0.531749 0.0470663 0.005
0.531544 0.0884982 0.005
0.531338 0.12993 0.005
0.531133 0.171362 0.005
0.530928 0.212794 0.005
0.530722 0.254226 0.005
0.530517 0.295658 0.005
0.530312 0.33709 0.005
0.530107 0.378521 0.005
0.529901 0.419953 0.005
0.529696 0.461385 0.005
0.529491 0.502817 0.005
0.529285 0.544249 0.005
0.52908 0.585681 0.005
0.528875 0.627113 0.005
0.528669 0.668545 0.005
0.528464 0.709977 0.005
0.528259 0.751409 0.005
0.528054 0.79284 0.005
0.527848 0.834272 0.005
0.527643 0.875704 0.005
0.527438 0.917136 0.005
0.527232 0.958568 0.005
0.527027 1.0 0.005
0.572289 0.0127465 0.005
0.572093 0.0538821 0.005
0.571896 0.0950177 0.005
0.571699 0.136153 0.005
0.571502 0.177289 0.005
0.571306 0.218424 0.005
0.571109 0.25956 0.005
0.570912 0.300695 0.005
0.570715 0.341831 0.005
0.570519 0.382967 0.005
0.570322 0.424102 0.005
0.570125 0.465238 0.005
0.569928 0.506373 0.005
0.569732 0.547509 0.005
0.569535 0.588644 0.005
0.569338 0.62978 0.005
0.569142 0.670916 0.005
0.568945 0.712051 0.005
0.568748 0.753187 0.005
0.568551 0.794322 0.005
0.568355 0.835458 0.005
0.568158 0.876593 0.005
0.567961 0.917729 0.005
0.567764 0.958864 0.005
0.567568 1.0 0.005
0.612625 0.0198587 0.005
0.612436 0.0606979 0.005
0.612248 0.101537 0.005
0.61206 0.142376 0.005
0.611872 0.183216 0.005
0.611684 0.224055 0.005
0.611496 0.264894 0.005
0.611307 0.305733 0.005
0.611119 0.346572 0.005
0.610931 0.387412 0.005
0.610743 0.428251 0.005
0.610555 0.46909 0.005
0.610366 0.509929 0.005
0.610178 0.550769 0.005
0.60999 0.591608 0.005
0.609802 0.632447 0.005
0.609614 0.673286 0.005
0.609425 0.714125 0.005
0.609237 0.754965 0.005
0.609049 0.795804 0.005
0.608861 0.836643 0.005
0.608673 0.877482 0.005
0.608484 0.918322 0.005
0.608296 0.959161 0.005
0.608108 1.0 0.005
0.65296 0.0269708 0.005
0.65278 0.0675137 0.005
0.652601 0.108057 0.005
0.652421 0.148599 0.005
0.652241 0.189142 0.005
0.652062 0.229685 0.005
0.651882 0.270228 0.005
0.651702 0.310771 0.005
0.651523 0.351314 0.005
0.651343 0.391857 0.005
0.651164 0.4324 0.005
0.650984 0.472943 0.005
0.650804 0.513485 0.005
0.650625 0.554028 0.005
0.650445 0.594571 0.005
0.650265 0.635114 0.005
0.650086 0.675657 0.005
0.649906 0.7162 0.005
0.649726 0.756743 0.005
0.649547 0.797286 0.005
0.649367 0.837828 0.005
0.649188 0.878371 0.005
0.649008 0.918914 0.005
0.648828 0.959457 0.005
0.648649 1.0 0.005
0.693295 0.034083 0.005
0.693124 0.0743295 0.005
0.692953 0.114576 0.005
0.692782 0.154823 0.005
0.692611 0.195069 0.005
0.69244 0.235316 0.005
0.692269 0.275562 0.005
0.692098 0.315809 0.005
0.691926 0.356055 0.005
0.691755 0.396302 0.005
0.691584 0.436548 0.005
[...]
CELL_DATA 888
SCALARS P float 1
LOOKUP_TABLE default
100122.18563407948
100121.85418894835
100173.06271039131
100119.59816163669
100172.93349601515
100248.43779707933
100115.73122578677
100169.78962330785
100248.67547616872
100360.27023003792
100110.55174067055
100164.19711208557
100244.08513204739
100361.13573905462
100526.56704914481
100104.36059232097
100156.6615314384
100235.65711436348
100354.1313596645
100528.48379087257
100774.77575957793
100097.45434237657
100147.66550559005
100224.27179094989
100340.9972799966
100517.33985992576
100778.37334069032
101147.58913860493
100090.11195941869
100137.66608431429
100210.74452964644
100323.2974367219
100496.27321312355
100759.87134945655
101153.52511589121
101713.7061224808
100082.58287428018
100127.08034212403
100195.81840984996
100302.44770240807
100468.12583780046
100725.15490315911
101121.28460162789
101721.45140788762
102590.32993427127
100075.07939895624
100116.27221409397
100180.14561315096
100279.68931934383
100435.40035692147
100679.52199886298
101062.46788828065
101661.89215950132
102592.5669587463
103997.53083670237
100067.77377239792
100105.54493048706
100164.27375624974
100256.06302959486
100400.19114241998
100627.44011962721
100987.1793567295
101559.19539550236
102474.48115182293
103956.40165457908
106412.73626553525
100060.79892540666
100095.13960270726
100148.64274208448
100232.403430516
100364.16509459677
100572.43717467715
100903.3988834775
101432.91488669392
102289.12826813888
103702.57815780281
106156.69174114542
111087.10428556748
100054.25194345754
100085.23867925181
100133.58949886267
100209.34751393757
100328.58213546826
100517.14331997366
100816.96842266856
101297.07972053975
102074.11764516348
103356.32346494737
105564.79831152159
109826.4981712382
122091.55649857089
100048.19893648732
100075.97243983114
100119.35885059545
100187.3586565305
100294.34934081389
100463.41400352723
100731.89709567955
101160.95694901161
101852.8996798372
102985.95945734813
104898.4719552345
108360.59264948383
115853.55642644185
132267.7832788987
100042.68055726387
100067.42707414202
100106.11739145445
100166.75355936967
100262.07968165945
100412.48127895234
100650.77184325545
101030.26514045241
101638.93064165847
102625.9550797638
104258.29188911279
107067.15602489341
112308.74949904252
122580.8268503881
140203.93174657485
100037.71759091562
100059.65309416005
100093.96797169518
100147.73061378824
100232.1560850445
100365.10223504734
100575.13564805668
100908.25841139653
101439.30887727627
102292.10591724017
103677.83626978057
105977.19317312844
109930.76995820354
117000.81783482572
128994.31282439531
146602.33946312458
100033.31614638519
100052.67369843321
100082.96366838187
100130.39693880487
100204.78720317353
100321.68258620006
100505.79386692683
100796.5573614069
101257.28170728215
101990.51275272648
103164.78460784405
105063.55745788047
108174.68943210201
113399.476458532
121959.0236974388
134806.74638490868
151838.1031053236
100029.47237875697
100046.49212671108
100073.12061705292
100114.79105335729
100180.05246007949
100282.38031335268
100443.05362480792
100695.74045494055
101093.84594040194
101722.35830747722
102717.05590265714
104295.67812732497
106805.34096312817
110852.0127778175
117267.18078980561
126857.89870464813
139969.1166944939
156140.49349628406
100026.17675068637
100041.09835820414
100064.42898573063
100100.90352612002
100157.94225343355
100247.18305918829
100386.89103084693
100605.73524834275
100948.71735749854
101486.39936027181
102329.1242871067
103648.10859430845
105703.58025650233
108932.18434649898
113926.47918559451
121315.37015717938
131522.26279390967
144504.71335241065
159667.86586601884
100023.41777804923
100036.47502197699
100056.8623390396
100088.6926069012
100138.38663702116
100215.96841059819
100337.07837268032
100526.09203199403
100820.91796885623
101280.28097349027
101994.50996319456
103100.5846328806
104800.5801654695
107425.10048226816
111417.59514192797
117269.75598235424
125377.73777474067
135862.0803440099
148456.62336960423
162539.66142272038
100021.18569967645
100032.6026570833
100050.38615054639
100078.09839540951
100121.28077547684
100188.54755760414
100293.26954901397
100456.15281916455
100709.13859771514
101101.21837557603
101706.78375958628
102636.84029382406
104052.0642441299
106211.3746946058
109459.9277407454
114191.73546711873
120758.6966399236
129337.62252166017
139836.00169669936
151872.59243355342
164850.90923728974
100019.47654497098
100029.46493848517
100044.96488793187
100069.0532493981
100106.501384054
100164.69842970656
100255.06029211685
100395.16482316196
100611.9443004962
100946.35909450296
101459.98997487956
102243.65785925645
103427.25772201053
105218.06664704061
107892.36412570586
111773.5401534265
117172.75920475576
124288.24810542204
133116.73596632964
143429.70497606616
154799.90684854664
166680.58102377006
100018.29746825567
100027.05485744284
100040.56951481444
100061.49261579073
100093.92359755107
100144.19000692564
100222.02887409326
100342.35797492295
100527.89978950957
100812.97543285106
101248.77709249122
101910.15708429691
102903.36118718555
104396.78294402223
106615.72368488369
109830.03202433459
114315.83911778167
120279.25865593282
127774.53615163387
136665.06925872076
146644.64722512668
157284.06082065142
168096.39843595086
100017.67562819633
100025.38344841772
100037.18668015204
100055.36480489363
100083.43288158561
100126.80109867427
100193.76600322986
100296.98586847991
100455.64578408319
100698.55863095884
101068.43039111246
101627.30996648777
102462.84251168146
103713.24553565208
105564.34975054282
108243.72175909813
111996.501290497
117029.00101429953
123436.734008605
131153.2033631443
139952.35546886036
149492.41927436457
159368.54938908445
169157.73341768215
100024.49480507338
100034.8320533288
100050.64437544519
100074.9397332613
100112.33649218308
100169.8971502703
100258.36074991823
100393.93609960927
100600.85200987222
100914.84217818275
101387.58807784852
102091.85843184871
103141.87502256148
104692.13392724427
106935.5622938364
110089.16690501182
114353.75599198893
119853.7059184199
126581.02555766737
134376.72927044996
142962.16226336473
151989.88338610507
161094.365437872
169914.38438608337
100033.57348213575
100047.35143290217
100068.39687939096
100100.64513976208
100150.10171995782
100225.87359300608
100341.6618370494
100517.87136602803
100784.4784706439
101184.68871538692
101779.23388407801
102662.98410784006
103965.03797689293
105849.37060910976
108507.2343974029
112129.29819750415
116857.99735510712
122733.23185998946
129658.67361905634
137411.22234908503
145688.54264262164
154157.96547860582
162499.5628277027
170412.91878980809
100045.5853977806
100063.82735631871
100091.64364979973
100134.13266579539
100199.01281723639
100297.86852978512
100447.90379268324
100674.31896261216
101013.34866895701
101515.88044153823
102261.02290276511
103357.01056171299
104943.38069914869
107187.83518543477
110267.74002050096
114334.07740408936
119463.3006239393
125616.17440459119
132627.04497815893
140234.1776315076
148133.11276588228
156019.20898277036
163621.02307989495
170689.91532347057
100061.37141120005
100085.3540279419
100121.84909680483
100177.38971397381
100261.76901416903
100389.50375171402
100581.81574993912
100869.17083121763
101294.35146988134
101923.51886469584
102847.64068288315
104185.51654612782
106083.46002638253
108703.67494830534
112198.16233544321
116668.64167384592
122124.36017093867
128457.42815025615
135452.99522357053
142832.18026688544
150303.23364596424
157598.02880355515
164489.94934752307
170782.25758024937
100081.96882972374
100113.26540946154
100160.77512367381
100232.76847694225
100341.4977325707
100504.85614138393
100748.51290016946
101108.5337288834
101640.37477126652
102420.6512813674
103550.51179902011
105157.0306556354
107386.60687542183
110386.59538601874
114273.88614644817
119095.89112246671
124798.50247909385
131219.04766969752
138112.2082877523
145199.09174844588
152210.36764600826
158918.4015290392
165139.51981390096
170718.96377887324
100108.64105045135
100149.1666048591
100210.51061779162
100303.00637090817
100441.74872223029
100648.39649209876
100953.41718690652
101403.39406099015
102062.93296586552
103018.14270075888
104379.02701868645
106276.23975788875
108848.8209128935
112220.53512350323
116466.2996963465
121578.3382330131
127447.13152112208
133869.99272983364
140587.8495987869
147333.76945358285
153868.71406029278
160004.19855976145
165596.59694784592
170531.6528775572
100142.90782498922
100194.96214405222
100273.49466367044
100391.23182715519
100566.46266982834
100824.95870138888
101205.91047670782
101763.85936883872
102572.09488320813
103725.57130208897
105339.89190159533
107543.59861272249
110460.9674023523
114184.820929422
118744.43342713338
124079.85289122934
130036.34356096
136385.9070107596
142869.5419485399
149240.73397327863
155294.51856444872
160879.8257950181
165890.0048371095
170241.7216271035
100186.57318815749
100252.88169817282
100352.53174867907
100500.95635711736
100719.971294446
101042.56815050822
101514.83067669805
102199.12827254557
103177.2280272606
104550.70918297669
106436.55787227744
108955.1784432907
112209.18180009653
116255.28579768374
121076.48234023833
126566.66644936177
132537.396076719
138749.01239733933
144952.42608900915
150927.40312994202
156505.05902108343
161569.29277249964
166044.80909957393
169880.2950029931
100241.75269284725
100325.50211752056
100450.80206116056
100636.09893128237
100909.1730648998
101308.96209193881
101888.5157675898
102718.09638912609
103886.49368931809
105498.89543464709
107668.91026256097
110502.7429233639
114075.70031078771
118405.48745204529
123431.14923101943
129008.51473633599
134926.90750483077
140945.9326678182
146835.58326155422
152405.13961969552
157519.6304027304
162096.07477724433
166087.47214108516
169468.58956625668
100310.89789042824
100415.76794447456
100571.89803712626
100802.64673855114
101140.87003130448
101631.65321704885
102335.25135797943
103328.93140128124
104706.36833075063
106572.70363629171
109033.14171224272
112174.16806163707
116039.66500502152
120607.91263857439
125778.69673197722
131378.44335855386
137186.51480578148
142970.13791037074
148522.8504237321
153686.24372098807
158357.49779501313
162483.20162600043
166043.4293088357
169037.68379358103
100396.82432579043
100527.0403426338
100721.09597659609
101006.61274093098
101421.81652955551
102018.26950880425
102862.93060049124
104038.61163633638
105641.18516033159
107771.65188628195
110521.7924300821
113953.85872368157
118078.08544153703
122835.01453920614
128091.72590747452
133654.80138075975
139301.94096468342
144817.09810721534
150020.33372943738
154784.69370827527
159038.83553814725
162755.72791339288
165940.98796645924
168621.38966669532
100502.76553871734
100664.08108901611
100903.77611411033
101254.09080109022
101758.9962190824
102476.29368519987
103478.70563477688
104852.60185719088
106692.8334154918
109092.00060016225
112124.01576624681
115823.52308306083
120166.64859595781
125060.15453484692
130345.14726258442
135818.68713988416
141264.48694837015
146487.250593117
151336.79962271187
155716.66282687802
159584.13136377805
162938.51091550477
165810.66972869122
168271.21827837982
100633.20012440925
100831.81533082093
101125.48687759042
101551.46872163498
102159.40244213774
103012.75876939447
104188.60311645214
105774.42592662327
107860.49665797349
110526.9228041461
113825.87605920518
117762.74578442483
122280.83697843416
127257.91725470935
132517.81812656941
137855.1192861982
143067.25252539443
147983.58112636858
152482.77377286475
156498.52511484688
160015.23717800286
163057.8741781735
165690.05909071403
168046.1689088266
100792.78877092061
101035.38224428834
101392.1071106378
101905.25562358915
102629.81987712084
103633.94070393403
104997.19940663716
106805.37705098632
109140.53144195331
112066.45508185533
115610.9524227224
119749.40536928194
124395.90737382724
129405.21862117047
134591.04966710662
139753.33034905835
144707.918602343
149310.88318454474
153469.73319005477
157146.905119963
160352.66571933668
163138.76323515418
165614.57344290143
100986.44078414133
101280.26088229922
101709.69705971864
102321.88748370865
103176.51363898319
104345.03825879205
105907.3283095751
107944.32866023129
110526.42859265338
113697.92840746329
117460.70674647971
121761.55246939696
126488.60746624472
131480.9232103844
136549.32571220465
141504.92503274482
146185.47150265696
150474.4611013043
154308.5771716393
157676.2738202367
160611.03377527525
163194.6631831814
101219.4026876168
101572.16074666724
102084.34296671057
102807.49557679804
103804.96442040513
105149.84291991484
106919.70996547413
109187.59516094692
112008.95692306472
115406.29460615254
119355.17192534884
123776.01165288333
128536.3752216786
133466.21835184013
138379.3717112511
143103.28162469598
147499.9320579663
151480.51127922104
155007.12796664226
158091.04348673284
160782.32248340294
101497.1634003094
101916.8635172729
102521.95579797857
103367.63151554897
104519.59097157969
106050.45790939129
108032.8511801757
110528.79426455896
113575.98492581803
117174.02318706123
121272.78927493737
125769.83855943463
130518.0125668025
135343.48318982025
140069.4085960148
144542.77580699814
148650.30581710473
152328.65723452202
155560.6549702327
158363.7669087742
101825.32565686382
102320.05950917637
103028.03660511637
104007.01778624504
105323.4211016514
107047.07721730319
109242.85150735767
111959.03097077896
115213.51953777186
118982.25820892864
123191.9124773426
127721.02944935267
132413.1787767726
137096.4020306501
141608.05902905148
145815.45729734615
149629.68888926652
153004.30800644401
155922.66641877085
102209.42452371438
102787.14492124411
103607.43192704995
104729.28777188127
106217.83190650548
108137.70117542766
110543.28158703551
113466.51144456818
116904.78333659074
120810.69291671073
125089.77689156444
129607.1320678402
134201.70021314087
138708.6842999184
142981.4113140954
146907.34398506433
150412.72339187257
153444.99881599448
102654.76045175164
103322.98174114348
104264.09931341092
105536.64572646482
107202.33799006474
109318.02632025401
111925.00339383828
115037.33043747308
118630.80492505331
122636.47898813183
126942.98566229314
131404.97229459943
135862.30811762033
140160.21304494079
144167.78851416375
147783.9028029753
150922.22477079742
103166.17695597092
103931.65904547377
105000.77167312434
106429.62944056535
108274.13749982062
110581.01178984134
113376.31369569953
116654.69464045986
120370.77680289539
124436.66963289081
128726.21748684572
133089.34056327367
137369.4717756279
141421.910362665
145122.55895831116
148352.14975716354
103747.80410088727
104616.23894608831
105818.7375858841
107406.87773493762
109428.39884311616
111917.22517915959
114882.60776377772
118299.13102690023
122101.29104767568
126184.02521357701
130410.88471398399
134629.7639735819
138687.45030168045
142440.50490104532
145740.51812929354
104402.82192422003
105378.4423224028
106717.56038752211
108464.7634502902
110657.22840570568
113314.0130337817
116426.25865305761
119948.06176794374
123795.4286772662
127848.66759585432
131963.6357782597
135984.51557065675
139754.61156975874
143098.76771752286
105133.18520505294
106218.39007292813
107694.53279880308
109596.92897195733
111949.78749222979
114755.50090288497
117985.72023332445
121574.9566180083
125421.82238038722
129393.3109997992
133336.7249853292
137085.47677306746
140443.6179488667
105939.26571344228
107134.20987313976
108744.81804316018
110794.5001172496
113292.05573654795
116221.84856489948
119535.3019805822
123147.88119890106
126940.677758559
130767.14019425797
134455.82970238655
137795.66955986197
106819.62935407308
108121.70412210733
109860.38648334153
112044.54344143892
114665.7438858321
117688.44706236944
121043.40073685284
124626.16784740039
128298.64852461325
131890.12766865964
135178.0274906168
107770.50865161601
109173.94569412865
111029.98774029111
113330.5201198699
116047.58714064912
119124.18632838104
122468.9107025787
125954.42049365403
129412.7917646364
132615.32492382883
108785.48217597255
110280.5942834882
112238.18439126563
114630.42976624132
117407.48299717875
120488.27341108774
123755.49120924422
127047.12924798414
130131.98445801628
109854.74294979656
111427.18904683198
113464.29487469308
115915.29529726191
118705.18621511603
121724.46900717916
124817.10472444055
127753.0803442154
110964.36474747007
112594.03110144137
114680.40112162617
117146.32552305372
119885.36165383903
122747.10097617019
125503.35065213083
112095.31944783495
113754.450037884
115849.28563124781
118269.18677950987
120864.18736796782
123408.5139304208
113221.61814559683
114871.98345517652
116917.76724486987
119201.76331121524
121497.33803042036
114307.54847129926
115895.27462867342
117806.51581525053
119805.45654565208
115302.72672879664
116747.20981200997
118381.54325434117
116131.4198519838
117298.14278983533
116667.27722811424
SCALARS T float 1
LOOKUP_TABLE default
300.10546282648073
300.1051595074269
300.14979104919587
300.1031901802225
300.1496400636225
300.2158344336248
300.09982636369347
300.14687155388486
300.2159516779221
300.3145390296559
300.09532758846007
300.141976522599
300.2118599792395
300.315092151473
300.46269049368476
300.0899559614524
300.13539652989965
300.20442192767047
300.308749231252
300.46391671403245
300.6864146304559
300.08396966982036
300.12755416925575
300.19441086514774
300.29703515516184
300.45362664409674
300.6885677195252
301.0272360866031
300.0776111832301
300.11884944632817
300.1825453303361
300.2813341211467
300.43459268307214
300.67109239571835
301.030218001317
301.5531820877705
300.07109680692844
300.10964657500557
300.16947970925617
300.2629034780445
300.4093534428609
300.63924233179733
300.99902455767943
301.55498188956
302.3809754726764
300.0646101566397
300.1002623411679
300.1557865795598
300.24284403996745
300.38015096436084
300.59779988008586
300.94413591728545
301.49607511217863
302.37160773596077
303.725569073992
300.0582997195251
300.0909596497655
300.1419445138681
300.22207478325595
300.34885689244015
300.55080534595794
300.874773062179
301.39855856767053
302.2531291279624
303.66387737143197
306.0269351635197
300.052279665145
300.0819465760576
300.12833574584954
300.20132786978456
300.31695155253465
300.50143573408894
300.79821986700176
301.2804524211822
302.0744833329088
303.40929220343827
305.7483978039412
310.32265485480553
300.04663298663274
300.0733796936929
300.115250998508
300.18115741490203
300.28554343246543
300.45203829634175
300.7197729274537
301.15466130767066
301.8705555916669
303.07285494019277
305.1675442828939
309.15013103928123
319.45335254292854
300.04141583373246
300.0653700143489
300.10289969422524
300.16196222512474
300.25542063115074
300.4042464035755
300.6430193855035
301.0296230201515
301.66301396145286
302.7180055408254
304.5228757940453
307.77893807242106
314.4533778324967
327.38371332613673
300.03666237484805
300.057990238685
300.0914226777781
300.1440110069496
300.2271066240747
300.359123493087
300.5702257363517
300.9104409811223
301.46410421373554
302.3766254134737
303.9079304854221
306.5540972116912
311.3666476469244
320.11784325425265
333.324930181536
300.0323896884217
300.05128222510467
300.08090530567927
300.1274684739015
300.20092007085145
300.3173035429017
300.5026986650593
300.7999167645323
301.2800693502445
302.0629702263679
303.35423962933896
305.5157545909653
309.197028845932
315.5047937499597
325.3051683856269
337.9877936571794
300.0286022821972
300.04526434901
300.07138992279215
300.1124198855804
300.1770263403149
300.2791072526092
300.4410764282435
300.6993457676689
301.1135432349521
301.7821024319818
302.86860357530156
304.6452963552775
307.5557600214057
312.33787590602014
319.73952326803413
329.84706698617447
341.7269440395989
300.02529618561016
300.0399379314518
300.0628872066493
300.0988914061201
300.15547866789007
300.24463814141956
300.3855544427613
300.6090815499193
300.9650880557101
301.5344594795284
302.4482688890094
303.91651760945695
306.26275338153476
310.0132352099212
315.75898541249524
323.7917059741781
333.7641182665256
344.75048519531435
300.022462628035
300.0352930574999
300.05538578597793