# vtk DataFile Version 2.0
JuliaCFD
ASCII
DATASET UNSTRUCTURED_GRID

POINTS 1900 float
0.0 0.0 0.005
0.0 0.0416667 0.005
0.0 0.0833333 0.005
0.0 0.125 0.005
0.0 0.166667 0.005
0.0 0.208333 0.005
0.0 0.25 0.005
0.0 0.291667 0.005
0.0 0.333333 0.005
0.0 0.375 0.005
0.0 0.416667 0.005
0.0 0.458333 0.005
0.0 0.5 0.005
0.0 0.541667 0.005
0.0 0.583333 0.005
0.0 0.625 0.005
0.0 0.666667 0.005
0.0 0.708333 0.005
0.0 0.75 0.005
0.0 0.791667 0.005
0.0 0.833333 0.005
0.0 0.875 0.005
0.0 0.916667 0.005
0.0 0.958333 0.005
0.0 1.0 0.005
0.0409575 0.0 0.005
0.0409401 0.0416667 0.005
0.0409227 0.0833333 0.005
0.0409054 0.125 0.005
0.040888 0.166667 0.005
0.0408706 0.208333 0.005
0.0408532 0.25 0.005
0.0408359 0.291667 0.005
0.0408185 0.333333 0.005
0.0408011 0.375 0.005
0.0407838 0.416667 0.005
0.0407664 0.458333 0.005
0.040749 0.5 0.005
0.0407316 0.541667 0.005
0.0407143 0.583333 0.005
0.0406969 0.625 0.005
0.0406795 0.666667 0.005
0.0406621 0.708333 0.005
0.0406448 0.75 0.005
0.0406274 0.791667 0.005
0.04061 0.833333 0.005
0.0405927 0.875 0.005
0.0405753 0.916667 0.005
0.0405579 0.958333 0.005
0.0405405 1.0 0.005
0.0819149 0.0 0.005
0.0818802 0.0416667 0.005
0.0818455 0.0833333 0.005
0.0818107 0.125 0.005
0.081776 0.166667 0.005
0.0817412 0.208333 0.005
0.0817065 0.25 0.005
0.0816717 0.291667 0.005
0.081637 0.333333 0.005
0.0816022 0.375 0.005
0.0815675 0.416667 0.005
0.0815328 0.458333 0.005
0.081498 0.5 0.005
0.0814633 0.541667 0.005
0.0814285 0.583333 0.005
0.0813938 0.625 0.005
0.081359 0.666667 0.005
0.0813243 0.708333 0.005
0.0812895 0.75 0.005
0.0812548 0.791667 0.005
0.0812201 0.833333 0.005
0.0811853 0.875 0.005
0.0811506 0.916667 0.005
0.0811158 0.958333 0.005
0.0810811 1.0 0.005
0.122872 0.0 0.005
0.12282 0.0416667 0.005
0.122768 0.0833333 0.005
0.122716 0.125 0.005
0.122664 0.166667 0.005
0.122612 0.208333 0.005
0.12256 0.25 0.005
0.122508 0.291667 0.005
0.122455 0.333333 0.005
0.122403 0.375 0.005
0.122351 0.416667 0.005
0.122299 0.458333 0.005
0.122247 0.5 0.005
0.122195 0.541667 0.005
0.122143 0.583333 0.005
0.122091 0.625 0.005
0.122039 0.666667 0.005
0.121986 0.708333 0.005
0.121934 0.75 0.005
0.121882 0.791667 0.005
0.12183 0.833333 0.005
0.121778 0.875 0.005
0.121726 0.916667 0.005
0.121674 0.958333 0.005
0.121622 1.0 0.005
0.16383 0.0 0.005
0.16376 0.0416667 0.005
0.163691 0.0833333 0.005
0.163621 0.125 0.005
0.163552 0.166667 0.005
0.163482 0.208333 0.005
0.163413 0.25 0.005
0.163343 0.291667 0.005
0.163274 0.333333 0.005
0.163204 0.375 0.005
0.163135 0.416667 0.005
0.163066 0.458333 0.005
0.162996 0.5 0.005
0.162927 0.541667 0.005
0.162857 0.583333 0.005
0.162788 0.625 0.005
0.162718 0.666667 0.005
0.162649 0.708333 0.005
0.162579 0.75 0.005
0.16251 0.791667 0.005
0.16244 0.833333 0.005
0.162371 0.875 0.005
0.162301 0.916667 0.005
0.162232 0.958333 0.005
0.162162 1.0 0.005
0.204787 0.0 0.005
0.2047 0.0416667 0.005
0.204614 0.0833333 0.005
0.204527 0.125 0.005
0.20444 0.166667 0.005
0.204353 0.208333 0.005
0.204266 0.25 0.005
0.204179 0.291667 0.005
0.204092 0.333333 0.005
0.204006 0.375 0.005
0.203919 0.416667 0.005
0.203832 0.458333 0.005
0.203745 0.5 0.005
0.203658 0.541667 0.005
0.203571 0.583333 0.005
0.203484 0.625 0.005
0.203398 0.666667 0.005
0.203311 0.708333 0.005
0.203224 0.75 0.005
0.203137 0.791667 0.005
0.20305 0.833333 0.005
0.202963 0.875 0.005
0.202876 0.916667 0.005
0.20279 0.958333 0.005
0.202703 1.0 0.005
0.245745 0.0 0.005
0.245641 0.0416667 0.005
0.245536 0.0833333 0.005
0.245432 0.125 0.005
0.245328 0.166667 0.005
0.245224 0.208333 0.005
0.245119 0.25 0.005
0.245015 0.291667 0.005
0.244911 0.333333 0.005
0.244807 0.375 0.005
0.244703 0.416667 0.005
0.244598 0.458333 0.005
0.244494 0.5 0.005
0.24439 0.541667 0.005
0.244286 0.583333 0.005
0.244181 0.625 0.005
0.244077 0.666667 0.005
0.243973 0.708333 0.005
0.243869 0.75 0.005
0.243764 0.791667 0.005
0.24366 0.833333 0.005
0.243556 0.875 0.005
0.243452 0.916667 0.005
0.243347 0.958333 0.005
0.243243 1.0 0.005
0.286702 0.0 0.005
0.286581 0.0416667 0.005
0.286459 0.0833333 0.005
0.286337 0.125 0.005
0.286216 0.166667 0.005
0.286094 0.208333 0.005
0.285973 0.25 0.005
0.285851 0.291667 0.005
0.285729 0.333333 0.005
0.285608 0.375 0.005
0.285486 0.416667 0.005
0.285365 0.458333 0.005
0.285243 0.5 0.005
0.285121 0.541667 0.005
0.285 0.583333 0.005
0.284878 0.625 0.005
0.284757 0.666667 0.005
0.284635 0.708333 0.005
0.284513 0.75 0.005
0.284392 0.791667 0.005
0.28427 0.833333 0.005
0.284149 0.875 0.005
0.284027 0.916667 0.005
0.283905 0.958333 0.005
0.283784 1.0 0.005
0.32766 0.0 0.005
0.327521 0.0416667 0.005
0.327382 0.0833333 0.005
0.327243 0.125 0.005
0.327104 0.166667 0.005
0.326965 0.208333 0.005
0.326826 0.25 0.005
0.326687 0.291667 0.005
0.326548 0.333333 0.005
0.326409 0.375 0.005
0.32627 0.416667 0.005
0.326131 0.458333 0.005
0.325992 0.5 0.005
0.325853 0.541667 0.005
0.325714 0.583333 0.005
0.325575 0.625 0.005
0.325436 0.666667 0.005
0.325297 0.708333 0.005
0.325158 0.75 0.005
0.325019 0.791667 0.005
0.32488 0.833333 0.005
0.324741 0.875 0.005
0.324602 0.916667 0.005
0.324463 0.958333 0.005
0.324324 1.0 0.005
0.368617 0.0 0.005
0.368461 0.0416667 0.005
0.368305 0.0833333 0.005
0.368148 0.125 0.005
0.367992 0.166667 0.005
0.367835 0.208333 0.005
0.367679 0.25 0.005
0.367523 0.291667 0.005
0.367366 0.333333 0.005
0.36721 0.375 0.005
0.367054 0.416667 0.005
0.366897 0.458333 0.005
0.366741 0.5 0.005
0.366585 0.541667 0.005
0.366428 0.583333 0.005
0.366272 0.625 0.005
0.366116 0.666667 0.005
0.365959 0.708333 0.005
0.365803 0.75 0.005
0.365647 0.791667 0.005
0.36549 0.833333 0.005
0.365334 0.875 0.005
0.365178 0.916667 0.005
0.365021 0.958333 0.005
0.364865 1.0 0.005
0.409575 0.0 0.005
0.409401 0.0416667 0.005
0.409227 0.0833333 0.005
0.409054 0.125 0.005
0.40888 0.166667 0.005
0.408706 0.208333 0.005
0.408532 0.25 0.005
0.408359 0.291667 0.005
0.408185 0.333333 0.005
0.408011 0.375 0.005
0.407838 0.416667 0.005
0.407664 0.458333 0.005
0.40749 0.5 0.005
0.407316 0.541667 0.005
0.407143 0.583333 0.005
0.406969 0.625 0.005
0.406795 0.666667 0.005
0.406621 0.708333 0.005
0.406448 0.75 0.005
0.406274 0.791667 0.005
0.4061 0.833333 0.005
0.405927 0.875 0.005
0.405753 0.916667 0.005
0.405579 0.958333 0.005
0.405405 1.0 0.005
0.450532 0.0 0.005
0.450341 0.0416667 0.005
0.45015 0.0833333 0.005
0.449959 0.125 0.005
0.449768 0.166667 0.005
0.449577 0.208333 0.005
0.449386 0.25 0.005
0.449195 0.291667 0.005
0.449003 0.333333 0.005
0.448812 0.375 0.005
0.448621 0.416667 0.005
0.44843 0.458333 0.005
0.448239 0.5 0.005
0.448048 0.541667 0.005
0.447857 0.583333 0.005
0.447666 0.625 0.005
0.447475 0.666667 0.005
0.447284 0.708333 0.005
0.447093 0.75 0.005
0.446901 0.791667 0.005
0.44671 0.833333 0.005
0.446519 0.875 0.005
0.446328 0.916667 0.005
0.446137 0.958333 0.005
0.445946 1.0 0.005
0.49149 0.0 0.005
0.491281 0.0416667 0.005
0.491073 0.0833333 0.005
0.490864 0.125 0.005
0.490656 0.166667 0.005
0.490447 0.208333 0.005
0.490239 0.25 0.005
0.49003 0.291667 0.005
0.489822 0.333333 0.005
0.489613 0.375 0.005
0.489405 0.416667 0.005
0.489197 0.458333 0.005
0.488988 0.5 0.005
0.48878 0.541667 0.005
0.488571 0.583333 0.005
0.488363 0.625 0.005
0.488154 0.666667 0.005
0.487946 0.708333 0.005
0.487737 0.75 0.005
0.487529 0.791667 0.005
0.48732 0.833333 0.005
0.487112 0.875 0.005
0.486903 0.916667 0.005
0.486695 0.958333 0.005
0.486486 1.0 0.005
0.531954 0.00563435 0.005
0.531749 0.0470663 0.005
0.531544 0.0884982 0.005
0.531338 0.12993 0.005
0.531133 0.171362 0.005
0.530928 0.212794 0.005
0.530722 0.254226 0.005
0.530517 0.295658 0.005
0.530312 0.33709 0.005
0.530107 0.378521 0.005
0.529901 0.419953 0.005
0.529696 0.461385 0.005
0.529491 0.502817 0.005
0.529285 0.544249 0.005
0.52908 0.585681 0.005
0.528875 0.627113 0.005
0.528669 0.668545 0.005
0.528464 0.709977 0.005
0.528259 0.751409 0.005
0.528054 0.79284 0.005
0.527848 0.834272 0.005
0.527643 0.875704 0.005
0.527438 0.917136 0.005
0.527232 0.958568 0.005
0.527027 1.0 0.005
0.572289 0.0127465 0.005
0.572093 0.0538821 0.005
0.571896 0.0950177 0.005
0.571699 0.136153 0.005
0.571502 0.177289 0.005
0.571306 0.218424 0.005
0.571109 0.25956 0.005
0.570912 0.300695 0.005
0.570715 0.341831 0.005
0.570519 0.382967 0.005
0.570322 0.424102 0.005
0.570125 0.465238 0.005
0.569928 0.506373 0.005
0.569732 0.547509 0.005
0.569535 0.588644 0.005
0.569338 0.62978 0.005
0.569142 0.670916 0.005
0.568945 0.712051 0.005
0.568748 0.753187 0.005
0.568551 0.794322 0.005
0.568355 0.835458 0.005
0.568158 0.876593 0.005
0.567961 0.917729 0.005
0.567764 0.958864 0.005
0.567568 1.0 0.005
0.612625 0.0198587 0.005
0.612436 0.0606979 0.005
0.612248 0.101537 0.005
0.61206 0.142376 0.005
0.611872 0.183216 0.005
0.611684 0.224055 0.005
0.611496 0.264894 0.005
0.611307 0.305733 0.005
0.611119 0.346572 0.005
0.610931 0.387412 0.005
0.610743 0.428251 0.005
0.610555 0.46909 0.005
0.610366 0.509929 0.005
0.610178 0.550769 0.005
0.60999 0.591608 0.005
0.609802 0.632447 0.005
0.609614 0.673286 0.005
0.609425 0.714125 0.005
0.609237 0.754965 0.005
0.609049 0.795804 0.005
0.608861 0.836643 0.005
0.608673 0.877482 0.005
0.608484 0.918322 0.005
0.608296 0.959161 0.005
0.608108 1.0 0.005
0.65296 0.0269708 0.005
0.65278 0.0675137 0.005
0.652601 0.108057 0.005
0.652421 0.148599 0.005
0.652241 0.189142 0.005
0.652062 0.229685 0.005
0.651882 0.270228 0.005
0.651702 0.310771 0.005
0.651523 0.351314 0.005
0.651343 0.391857 0.005
0.651164 0.4324 0.005
0.650984 0.472943 0.005
0.650804 0.513485 0.005
0.650625 0.554028 0.005
0.650445 0.594571 0.005
0.650265 0.635114 0.005
0.650086 0.675657 0.005
0.649906 0.7162 0.005
0.649726 0.756743 0.005
0.649547 0.797286 0.005
0.649367 0.837828 0.005
0.649188 0.878371 0.005
0.649008 0.918914 0.005
0.648828 0.959457 0.005
0.648649 1.0 0.005
0.693295 0.034083 0.005
0.693124 0.0743295 0.005
0.692953 0.114576 0.005
0.692782 0.154823 0.005
0.692611 0.195069 0.005
0.69244 0.235316 0.005
0.692269 0.275562 0.005
0.692098 0.315809 0.005
0.691926 0.356055 0.005
0.691755 0.396302 0.005
0.691584 0.436548 0.005
[...]
CELL_DATA 888
SCALARS P float 1
LOOKUP_TABLE default
100136.51358847959
100136.17202900164
100192.66597071166
100133.82362962469
100192.53919948878
100274.86954390898
100129.79299441222
100189.27516232083
100275.13216046864
100395.52046791295
100124.38712571742
100183.45946539832
100270.38699526293
100396.44714370009
100573.18266585993
100117.91498853841
100175.61217657647
100261.65607388405
100389.24315171226
100575.21684636766
100836.0117972745
100110.68124594842
100166.22850828586
100249.84309782181
100375.69758498041
100563.81339299314
100839.81326503973
101227.59794317068
100102.97310157331
100155.77748673667
100235.78306247907
100357.41094995357
100542.18463305908
100820.96874694133
101233.8700439996
101817.7711058027
100095.04826978974
100144.68796656099
100220.23702224848
100335.82955286198
100513.22937867156
100785.47703641419
101201.16679254851
101826.05306917812
102725.155590423
100087.12725303786
100133.33550233631
100203.87426618717
100312.22177877882
100479.49742962142
100738.72511190556
101141.26655651227
101765.84653559882
102728.2220405027
104171.62148232404
100079.39025480622
100122.03466647009
100187.25883050884
100287.65337666059
100443.12422931491
100685.25387440341
101064.4154478495
101661.60964984563
102609.18269363456
104131.69471489535
106637.0087716885
100071.97783567761
100111.03749907941
100170.84633254341
100262.98229960243
100405.8134007025
100628.65351224298
100978.70830371277
101533.12694310004
102421.59655117565
103876.35934511435
106382.3894984849
111376.41949366324
100064.99430410948
100100.5368550295
100154.98860728357
100238.867264613
100368.85795397482
100571.607902997
100890.08135109683
101394.60802768712
102203.45467346557
103526.79630599599
105787.86565770506
110115.99444909152
122470.65548101328
100058.51254255531
100090.67281619385
100139.94449350679
100215.79185345053
100333.19497971311
100516.01926243241
100802.62162661635
101255.46083717445
101978.48738072097
103151.95267384477
105116.5439897648
108645.05416014406
116223.04175783582
132746.25978989433
100052.57950639044
100081.54072869575
100125.89366242671
100194.0914504536
100299.46458054101
100463.16057624826
100718.98125103713
101121.5150584675
101760.35625385425
102786.71437534333
104469.95649868636
107344.0040182041
112668.13957685253
123043.18752812457
140786.94804150314
100047.22181474659
100073.1995930897
100112.95108056671
100173.98162307711
100268.07427049727
100413.8250317827
100640.75834350173
100996.11377203674
101556.31294853544
102447.1609393754
103882.24555826017
106244.97855723603
110278.76544585622
117448.49521404652
129560.0374899202
147296.27144174074
100042.4509581914
100065.68044464443
100101.1809880226
100155.5852479289
100239.25498351181
100368.45024355476
100568.80532853008
100880.94998062107
101369.7220498952
102139.59392179447
103361.44933238695
105321.44545384827
108510.23349385141
113831.90806634909
122507.5311770506
135485.5002065292
152649.7833240275
100038.26805188424
100058.9937268969
100090.60976801818
100138.95521301022
100213.10622956636
100327.22253236962
100503.4700374501
100776.66223319649
101201.67256020404
101865.34363840194
102905.73009085504
104543.22130210177
107127.74940790322
111268.3664609375
117797.46737875852
127519.04375869427
140770.17994311725
157076.85535362043
100034.66814686178
100053.1360401664
100081.2369712023
100124.0952035872
100189.63660070953
100290.15475875889
100444.7638706024
100683.22851312654
101051.9544305196
101623.27914926602
102509.73646091548
103885.12538369116
106012.4980518555
109331.82998299813
114437.40982876752
121956.64598683316
132307.2983170942
145436.99361652342
160735.769523408
100031.64404243417
100048.0961225082
100073.04474525212
100110.97539122518
100168.79254715373
100257.1470370222
100392.49006906527
100600.24219755142
100919.6505098908
101411.1337867648
102167.11930360249
103327.08663621133
105095.91543207035
107807.70354340192
111908.28983107052
117889.19705496004
126142.76167357138
136781.76590884232
149528.64626503983
163745.77208174416
100029.19006893536
100043.86021625232
100066.00648530976
100099.54679312055
100150.48414839775
100228.03070984574
100346.32984025114
100527.08240718894
100803.502627358
101226.19392542737
101871.55042396788
102852.98471837914
104333.92919808853
106576.88204809878
109929.8736902021
114787.84655102558
121500.50234854818
130238.68337543057
140900.51358163843
153092.4090530419
166201.586791308
100027.30635244331
100040.41747790264
100060.09407573855
100089.75179471933
100134.60162996715
100202.60185519679
100305.90316938108
100463.02860684654
100702.11911416406
101065.66555180767
101617.15467400578
102449.71478436294
103695.92746207924
105566.66129891304
108341.4055021713
112345.3530480432
117888.90075492713
125165.9755974984
134165.520181518
144648.56491042906
156174.99358284354
168181.77419035486
100026.00450303663
100037.76649562818
100055.28569403515
100081.5353207875
100121.03265091298
100180.64596331846
100270.81001561412
100407.3392386137
100614.10188581857
100926.87000964713
101398.64602366406
102106.48604288284
103159.2368433227
104728.83984029468
107044.01805449015
110377.07886152889
115004.60694898668
121130.00335000001
128801.23724869569
137872.51950096615
148026.58333740963
158821.219381734
169753.53747861864
100025.31720800877
100035.9246473019
100051.57555450944
100074.85503854847
100109.67455589729
100161.95714795653
100240.6607753911
100359.29317037015
100538.12423823342
100807.34050233365
101211.36413722415
101814.34295409173
102706.42549280735
104029.29577796508
105972.31053808465
108765.97223710206
112656.86658486837
117850.05511595057
124436.32657570274
132341.21749488547
141328.56395247832
151045.29276622974
161073.79516273897
170975.6226016983
100034.94436384563
100048.98824568708
100069.69560640064
100100.44984339441
100146.3548879217
100215.09926642012
100318.22570948559
100472.96888609539
100704.85654572013
101051.24710148036
101565.81668846827
102323.73266179052
103442.57099323442
105080.382496594
107433.35190289382
110720.70498592124
115143.2848019062
120822.29385722813
127743.11652460339
135737.49589356777
144516.18781917746
153720.55071776293
162972.8327859711
171897.02729916794
100047.60380637243
100066.08944604688
100093.3245091857
100133.70326567901
100193.8228291216
100283.5494648326
100417.55323197028
100617.46611100937
100914.8006727424
101354.65420883014
102000.04900979373
102949.07727787278
104334.36130938807
106323.32999514224
109110.03326800338
112886.2504255462
117792.72025719984
123864.18801026307
130996.05306392883
138955.08386261968
147428.27485065596
156072.16037934957
164555.41680725777
172563.39319912522
100064.15324848457
100088.33828977933
100123.93612196417
100176.60319649208
100254.7742299052
100370.94780219252
100543.48580359704
100799.03964505378
101175.6353072112
101726.34065376113
102533.34292705628
103708.3252388024
105394.3761520737
107762.40675655814
110991.75558954169
115233.03800041342
120559.07870997762
126923.60354386401
134151.40515268774
141970.1992520297
150065.12817849978
158121.53115503915
165857.2034215468
173010.0100856448
100085.65525583818
100117.09769075534
100163.3215382306
100231.53441560273
100332.39064997286
100481.49837632498
100701.44848475701
101024.4006514281
101495.20803335859
102182.96008497749
103181.96654702729
104614.60159271357
106630.65752066996
109394.97401323127
113060.3299160795
117726.29868166048
123396.51177685859
129954.3934466422
137174.68860416292
144767.97581200188
152432.67988605725
159891.64282073104
166907.97913345732
173272.378902376
100113.41271084944
100154.02136675434
100213.6286849686
100301.3149312803
100430.35957961148
100619.9460492486
100897.34306229556
101300.57907437542
101887.88463524896
102739.09057514582
103958.88663651234
105677.97801113428
108045.89390256268
111211.70097598532
115291.51309527464
120328.63525705787
126261.44150482203
132917.27860893766
140040.0318529499
147340.6536374844
154540.89035552688
161404.8407307879
167739.2387052403
173377.66206095685
100149.0049339537
100201.09228817245
100277.39912438735
100389.2236313134
100552.87463453272
100791.51918357167
101137.48146055666
101639.96711069759
102366.65615897822
103407.12166648483
104875.06549554071
106904.60826570615
109637.24441546442
113197.1607886706
117656.66363282646
123001.84861882271
129114.00911728996
135779.61197664842
142728.83604429866
149685.27533914923
156402.1173201799
162683.09320813525
168375.8985611085
173355.46045514624
100194.32501534001
100260.65811869426
100357.59849357748
100499.0124127914
100704.60878965819
101001.91160112158
101432.5848912554
102054.09416170557
102943.08556400353
104198.20971354799
105938.74955540818
108296.26283278999
111396.45232374809
115330.93056221746
120124.34705787763
125708.69051217481
131918.70918839873
138515.1629770295
145228.73800522042
151804.46516063585
158030.4953034998
163748.67314494823
168844.4986934493
173224.46098732282
100251.61480229838
100335.46424087761
100457.638353388
100634.90358619661
100890.72702873465
101260.4262832882
101792.85675984615
102553.61521790699
103628.11108814871
105121.71368369019
107154.82798720204
109850.0966592432
113310.1667313535
117588.64577764562
122661.83667973017
128413.86434568331
134644.8746218677
141104.02290367818
147532.6867880993
153703.36939778578
159440.94205395246
164623.11321950052
169167.32980351808
173012.6466151196
100323.49955564777
100428.6827368622
100581.39259847083
100801.62648967371
101119.34891716961
101576.11316607075
102228.05229314571
103148.97744327666
104431.50006659975
106184.49495422633
108524.43653987379
111558.6334242463
115360.71274866075
119943.1930997928
125236.45293984588
131085.18668951208
137266.8813372465
143530.42694067882
149637.3600038361
155390.74229956444
160650.0725574285
165326.95204649097
169367.5200450094
172737.1760083893
100413.0194156453
100543.93946417548
100733.24542814217
101006.34132041856
101398.54180828333
101957.86175273707
102747.98094374736
103849.95855781027
105361.31125936157
107390.51182767875
110044.745196372
113410.11084200145
117526.83068483589
122365.87981784157
127816.61962389103
133693.4072250254
139763.81884479627
145785.1744129642
151543.8404873477
156875.95319520732
161674.04160290153
165879.74820412495
169466.39852122182
172424.30357994066
100523.66444562962
100685.3739310906
100919.60655220643
101256.28341364366
101736.39689431331
102414.79004205689
103362.13340518203
104665.14858492791
106423.36146924071
108740.44251553937
111708.9084413981
115388.8146528182
119784.59770557084
124827.45905410517
130372.64508051552
136214.20405057806
142118.53181399067
147860.7846777423
153255.0637299879
158169.67242382414
162529.35413443306
166302.30326073142
169487.30999086224
172101.86964444807
100659.43885147924
100858.85105284012
101147.04165743671
101558.84573705861
102141.35335197553
102955.95957521515
104079.29118504866
105601.57000773659
107620.84388250583
110231.38073470345
113506.23781617354
117475.79715775925
122108.20181975128
127299.07007227065
132876.68800991817
138625.61808235446
144319.09623368204
149754.38256277403
154776.2021563028
159284.19635272643
163232.1321935616
166614.42648136095
169454.91312089848
171815.2229338852
100825.907968613
101070.45459525051
101422.36632251575
101921.83731444742
102621.95544111534
103590.03035722839
104907.07967213287
106664.1619052857
108953.96745165672
111856.9206706556
115422.41968713344
119649.38420736321
124471.03781306506
129752.5433732918
135304.41923693282
140909.20868180823
146355.0046841332
151465.10166072464
156113.6691345587
160231.3498969411
163799.02995136924
166836.51224888183
169400.52744811864
171618.8362454658
101028.87383414085
101326.56568667425
101752.85055680829
102353.2918924176
103186.60613273022
104324.902045187
105851.57164473193
107855.39715791223
110419.73779897088
113606.99588116189
117440.049568749
121885.55280863364
126845.66974547098
132161.51968313585
137633.48697427093
143050.3234719953
148219.92650714304
152993.26785058144
157274.1761289696
161022.41347428825
164244.54642144058
166987.25393315023
169355.30178883587
101274.47421948497
101634.02872543682
102146.05078948804
102861.24281105753
103843.20124052392
105167.32620078578
106916.90636376054
109174.99277843101
112011.80280833719
115468.22846320372
119538.92558820725
124159.80217185135
129205.54324097178
134501.03221156317
139844.21863976528
145036.17400843266
149908.1641642693
154339.17032946143
158263.09067448578
161665.7049747832
164576.94529509664
167075.69234501335
101569.3053762166
102000.0278834902
102609.63008889309
103453.45122137206
104598.80509124015
106122.48647347066
108104.80609418114
110619.65821231662
113720.50152601754
117424.17679867815
121696.69659663516
126445.67831547352
131524.15722408684
136747.8731934329
141918.62918304867
146855.26209204973
151414.3042499531
155503.22277338654
159081.89697575464
162159.1301166279
164783.48369194492
101920.31543078469
102431.90155402443
103151.1180597334
104137.06658173658
105459.29467440763
107193.61862232797
109414.3717659467
112182.83350073868
115532.5671205146
119455.13085686685
123888.63118665064
128716.24600765701
133775.70819157903
138879.3986572153
143839.6157100774
148496.25611796742
152731.22894900193
156478.48490964898
159719.11047926676
162470.12074846853
102334.6529456683
102936.94370039874
103777.61726517281
104918.30673049782
106428.92612628396
108381.67890897367
110841.76162118283
113854.76429153433
117432.0960875197
121539.24214624004
126089.11677396393
130944.7621656596
135934.55595740402
140873.58479758122
145589.8713275359
149944.61084949702
153845.16054333744
157243.31199536988
160122.6667334506
102819.44479209055
103522.15019223718
104495.48970107555
105802.1054159723
107509.96557712623
109684.92070397048
112379.93224444221
115621.98327578172
119399.49911022684
123652.30455372663
128270.55246231082
133103.21906125083
137974.45677375636
142707.72706913308
147148.51996167167
151179.07452181264
154723.3368010667
157729.078641816
103381.5840776966
104193.90547625597
105310.03588423923
106791.65133047474
108702.34992649214
111098.65494996586
114018.33391970563
117468.0161822295
121412.02529313571
125766.59139008474
130403.79318950252
135162.02858152986
139867.22065150188
144354.47644785157
148486.02948734272
152157.21753972027
155281.71601684994
104027.4400351272
104957.66080704685
106225.03941380537
107888.02772871823
110003.07478155394
112614.6592562443
115742.92017330344
119372.46472901861
123444.05277215563
127853.29598982578
132456.78955156842
137088.62124175095
141579.59502258242
145776.30066608707
149549.31486868366
152778.45978692413
104762.51078711015
105817.57463790609
107242.43102660192
109089.84085821739
111406.36028230813
114221.40136133143
117535.67757115111
121311.11488593373
125466.21636375962
129878.17745694667
134393.17855786651
138844.15449561714
143066.96777870305
146910.7515002503
150224.67609949314
105591.08790655757
106776.0653039667
108361.85702213984
110392.67616580157
112902.4074845583
115903.01994027804
119374.38189727718
123255.43004286785
127444.42302764858
131803.22100418806
136170.69110147824
140377.60351475372
144257.63238747852
147631.09635495202
106515.85657767275
107833.41341829799
109579.95494883203
111788.46392486256
114477.379869984
117639.20329007432
121231.55796037595
125171.57990442809
129338.83010031556
133581.68824524063
137731.55277516262
141609.8766624754
145013.6222183886
107537.38219669645
108987.19642522393
110890.35097183878
113265.54742645327
116113.00553787609
119404.28724007071
123074.16542735415
127018.88267379487
131099.70711797915
135151.95564076232
138989.75813192787
142392.09571215266
108653.74171312067
110231.78587040922
112282.37288264578
114806.88300471693
117785.2829134
121166.30008199661
124861.65654091943
128746.32237299808
132662.19454389036
136421.61134525487
139789.06122580825
109859.79195503751
111557.74030115036
113740.83866691646
116390.38064585255
119463.63556912956
122885.05334572744
126542.21607241251
130286.35181753115
133930.11943978487
137228.90083096537
111146.66755928671
112950.91140851933
115244.88097405601
117986.79135593263
121108.81778871597
124508.76908920695
128046.80667812968
131539.29830908365
134736.17218292982
112500.8288253249
114391.52296331541
116766.67044926147
119557.98415507218
122669.38540720052
125968.04141384288
129274.33454840613
132336.5424533051
113903.09913255378
115852.81308941658
118269.1595995237
121053.86660245973
124076.47234601152
127161.35715059255
130055.84213942743
115327.45580260949
117299.04600455036
119703.7798967998
122406.27147708001
125229.78452223365
127921.43603596208
116738.8940471344
118682.38227808515
121003.32518319294
123516.1044087113
125964.36902807928
118090.33246853061
119937.35921555862
122071.13937037092
124223.3291700925
119317.24576142685
120969.30053149292
122751.11723152373
120326.2324309032
121626.00214111403
120968.182895606
SCALARS T float 1
LOOKUP_TABLE default
300.11782854041314
300.11751505042156
300.16674847394785
300.1154637802253
300.16659666018415
300.2387686446026
300.1119557237729
300.16371988947026
300.2389015622173
300.3452484293669
300.1072580222805
300.15862615719874
300.23466709427254
300.3458428292624
300.5035155113726
300.10163996261514
300.151769844875
300.2269554013927
300.3393095286474
300.5048205347412
300.74040729679496
300.09536694592873
300.1435848287615
300.21656062461506
300.32721623079783
300.4942710816573
300.74269218873627
301.09837958860453
300.0886887558321
300.13448189366414
300.20421910379065
300.3109801290967
300.4747052823012
300.7248526881457
301.10156497423907
301.6466619480234
300.0818290191209
300.1248358273729
300.19060162292817
300.29188660734405
300.44871388158083
300.69224436058903
301.069840753682
301.64875504993995
302.5034807150484
300.07497854944785
300.1149737800038
300.17629631488325
300.2710616481982
300.41858321846166
300.6497329145701
301.01384975185243
301.58904169776144
302.49449865537775
303.8855307644297
300.06829279211837
300.1051686953601
300.16179655722925
300.24944730665965
300.3862237333593
300.60142908088324
300.94294876060667
301.48989020450944
302.374743720387
303.824260359162
306.23442588393016
300.06189254458593
300.09563824430455
300.14749860472926
300.2277970571242
300.3531501860952
300.550569821539
300.8645342018586
301.3695460292767
302.19363462309167
303.5675984354316
305.9561356926581
310.5881921626331
300.05586704184515
300.086548067645
300.1337063365933
300.2066845625425
300.3205016272949
300.4995535414839
300.7839949535595
301.2410930868668
301.98643123945163
303.22743770731796
305.3719270065199
309.41536514692973
319.7838306060518
300.050278259223
300.0780176585082
300.12064141657316
300.18652654491046
300.28909336920566
300.4500572697561
300.7049932550488
301.1131084965739
301.7750801026618
302.8678197885752
304.72175566931816
308.0391971725856
314.7837556921685
327.78017009208514
300.04516576512873
300.07012759216576
300.10845600602966
300.16760804926076
300.2594730164516
300.40318174976164
300.62985686158845
300.99080341698635
301.5720300530461
302.5210351521181
304.10003901586333
306.80675808172657
311.6913216192062
320.5176070874202
333.7887584969663
300.0405516203826
300.0629269898218
300.09724586283943
300.1501086253239
300.23198070054843
300.35959305327964
300.5599427480801
300.87706309440534
301.3836724512905
302.2016181539112
303.53885661511146
305.7592987161519
309.51252387810314
315.9006529138438
325.77760757996475
338.52152314320756
300.0364449172295
300.05644090428325
300.0870628512958
300.1341270021641
300.20680093942127
300.31963958172764
300.49593077595546
300.77324858860123
301.2127508189992
301.91482476387273
303.0453652933651
304.8788825234722
307.85998899926
312.7246600027153
320.2119818810982
330.39557095748944
342.3335718036435
300.0328459030011
300.0506767752028
300.0779263419894
300.1197015210247
300.18400399590416
300.2834489606662
300.438051294294
300.67976589711697
301.0599100016825
301.66122986718597
302.61705177440706
304.13974746474906
306.5545282959074
310.387613669702
316.2244421690358
324.3454761346855
334.39226382284903
345.4332269627668
300.029749704975
300.04563029906
300.06983289169625
300.10682859949947
300.16358235981