# vtk DataFile Version 2.0
JuliaCFD
ASCII
DATASET UNSTRUCTURED_GRID

POINTS 32898 float
0.0 0.0 -0.05
0.0125 0.0 -0.05
0.025 0.0 -0.05
0.0375 0.0 -0.05
0.05 0.0 -0.05
0.0625 0.0 -0.05
0.075 0.0 -0.05
0.0875 0.0 -0.05
0.1 0.0 -0.05
0.1125 0.0 -0.05
0.125 0.0 -0.05
0.1375 0.0 -0.05
0.15 0.0 -0.05
0.1625 0.0 -0.05
0.175 0.0 -0.05
0.1875 0.0 -0.05
0.2 0.0 -0.05
0.2125 0.0 -0.05
0.225 0.0 -0.05
0.2375 0.0 -0.05
0.25 0.0 -0.05
0.2625 0.0 -0.05
0.275 0.0 -0.05
0.2875 0.0 -0.05
0.3 0.0 -0.05
0.3125 0.0 -0.05
0.325 0.0 -0.05
0.3375 0.0 -0.05
0.35 0.0 -0.05
0.3625 0.0 -0.05
0.375 0.0 -0.05
0.3875 0.0 -0.05
0.4 0.0 -0.05
0.4125 0.0 -0.05
0.425 0.0 -0.05
0.4375 0.0 -0.05
0.45 0.0 -0.05
0.4625 0.0 -0.05
0.475 0.0 -0.05
0.4875 0.0 -0.05
0.5 0.0 -0.05
0.5125 0.0 -0.05
0.525 0.0 -0.05
0.5375 0.0 -0.05
0.55 0.0 -0.05
0.5625 0.0 -0.05
0.575 0.0 -0.05
0.5875 0.0 -0.05
0.6 0.0 -0.05
0.0 0.0125 -0.05
0.0125 0.0125 -0.05
0.025 0.0125 -0.05
0.0375 0.0125 -0.05
0.05 0.0125 -0.05
0.0625 0.0125 -0.05
0.075 0.0125 -0.05
0.0875 0.0125 -0.05
0.1 0.0125 -0.05
0.1125 0.0125 -0.05
0.125 0.0125 -0.05
0.1375 0.0125 -0.05
0.15 0.0125 -0.05
0.1625 0.0125 -0.05
0.175 0.0125 -0.05
0.1875 0.0125 -0.05
0.2 0.0125 -0.05
0.2125 0.0125 -0.05
0.225 0.0125 -0.05
0.2375 0.0125 -0.05
0.25 0.0125 -0.05
0.2625 0.0125 -0.05
0.275 0.0125 -0.05
0.2875 0.0125 -0.05
0.3 0.0125 -0.05
0.3125 0.0125 -0.05
0.325 0.0125 -0.05
0.3375 0.0125 -0.05
0.35 0.0125 -0.05
0.3625 0.0125 -0.05
0.375 0.0125 -0.05
0.3875 0.0125 -0.05
0.4 0.0125 -0.05
0.4125 0.0125 -0.05
0.425 0.0125 -0.05
0.4375 0.0125 -0.05
0.45 0.0125 -0.05
0.4625 0.0125 -0.05
0.475 0.0125 -0.05
0.4875 0.0125 -0.05
0.5 0.0125 -0.05
0.5125 0.0125 -0.05
0.525 0.0125 -0.05
0.5375 0.0125 -0.05
0.55 0.0125 -0.05
0.5625 0.0125 -0.05
0.575 0.0125 -0.05
0.5875 0.0125 -0.05
0.6 0.0125 -0.05
0.0 0.025 -0.05
0.0125 0.025 -0.05
0.025 0.025 -0.05
0.0375 0.025 -0.05
0.05 0.025 -0.05
0.0625 0.025 -0.05
0.075 0.025 -0.05
0.0875 0.025 -0.05
0.1 0.025 -0.05
0.1125 0.025 -0.05
0.125 0.025 -0.05
0.1375 0.025 -0.05
0.15 0.025 -0.05
0.1625 0.025 -0.05
0.175 0.025 -0.05
0.1875 0.025 -0.05
0.2 0.025 -0.05
0.2125 0.025 -0.05
0.225 0.025 -0.05
0.2375 0.025 -0.05
0.25 0.025 -0.05
0.2625 0.025 -0.05
0.275 0.025 -0.05
0.2875 0.025 -0.05
0.3 0.025 -0.05
0.3125 0.025 -0.05
0.325 0.025 -0.05
0.3375 0.025 -0.05
0.35 0.025 -0.05
0.3625 0.025 -0.05
0.375 0.025 -0.05
0.3875 0.025 -0.05
0.4 0.025 -0.05
0.4125 0.025 -0.05
0.425 0.025 -0.05
0.4375 0.025 -0.05
0.45 0.025 -0.05
0.4625 0.025 -0.05
0.475 0.025 -0.05
0.4875 0.025 -0.05
0.5 0.025 -0.05
0.5125 0.025 -0.05
0.525 0.025 -0.05
0.5375 0.025 -0.05
0.55 0.025 -0.05
0.5625 0.025 -0.05
0.575 0.025 -0.05
0.5875 0.025 -0.05
0.6 0.025 -0.05
0.0 0.0375 -0.05
0.0125 0.0375 -0.05
0.025 0.0375 -0.05
0.0375 0.0375 -0.05
0.05 0.0375 -0.05
0.0625 0.0375 -0.05
0.075 0.0375 -0.05
0.0875 0.0375 -0.05
0.1 0.0375 -0.05
0.1125 0.0375 -0.05
0.125 0.0375 -0.05
0.1375 0.0375 -0.05
0.15 0.0375 -0.05
0.1625 0.0375 -0.05
0.175 0.0375 -0.05
0.1875 0.0375 -0.05
0.2 0.0375 -0.05
0.2125 0.0375 -0.05
0.225 0.0375 -0.05
0.2375 0.0375 -0.05
0.25 0.0375 -0.05
0.2625 0.0375 -0.05
0.275 0.0375 -0.05
0.2875 0.0375 -0.05
0.3 0.0375 -0.05
0.3125 0.0375 -0.05
0.325 0.0375 -0.05
0.3375 0.0375 -0.05
0.35 0.0375 -0.05
0.3625 0.0375 -0.05
0.375 0.0375 -0.05
0.3875 0.0375 -0.05
0.4 0.0375 -0.05
0.4125 0.0375 -0.05
0.425 0.0375 -0.05
0.4375 0.0375 -0.05
0.45 0.0375 -0.05
0.4625 0.0375 -0.05
0.475 0.0375 -0.05
0.4875 0.0375 -0.05
0.5 0.0375 -0.05
0.5125 0.0375 -0.05
0.525 0.0375 -0.05
0.5375 0.0375 -0.05
0.55 0.0375 -0.05
0.5625 0.0375 -0.05
0.575 0.0375 -0.05
0.5875 0.0375 -0.05
0.6 0.0375 -0.05
0.0 0.05 -0.05
0.0125 0.05 -0.05
0.025 0.05 -0.05
0.0375 0.05 -0.05
0.05 0.05 -0.05
0.0625 0.05 -0.05
0.075 0.05 -0.05
0.0875 0.05 -0.05
0.1 0.05 -0.05
0.1125 0.05 -0.05
0.125 0.05 -0.05
0.1375 0.05 -0.05
0.15 0.05 -0.05
0.1625 0.05 -0.05
0.175 0.05 -0.05
0.1875 0.05 -0.05
0.2 0.05 -0.05
0.2125 0.05 -0.05
0.225 0.05 -0.05
0.2375 0.05 -0.05
0.25 0.05 -0.05
0.2625 0.05 -0.05
0.275 0.05 -0.05
0.2875 0.05 -0.05
0.3 0.05 -0.05
0.3125 0.05 -0.05
0.325 0.05 -0.05
0.3375 0.05 -0.05
0.35 0.05 -0.05
0.3625 0.05 -0.05
0.375 0.05 -0.05
0.3875 0.05 -0.05
0.4 0.05 -0.05
0.4125 0.05 -0.05
0.425 0.05 -0.05
0.4375 0.05 -0.05
0.45 0.05 -0.05
0.4625 0.05 -0.05
0.475 0.05 -0.05
0.4875 0.05 -0.05
0.5 0.05 -0.05
0.5125 0.05 -0.05
0.525 0.05 -0.05
0.5375 0.05 -0.05
0.55 0.05 -0.05
0.5625 0.05 -0.05
0.575 0.05 -0.05
0.5875 0.05 -0.05
0.6 0.05 -0.05
0.0 0.0625 -0.05
0.0125 0.0625 -0.05
0.025 0.0625 -0.05
0.0375 0.0625 -0.05
0.05 0.0625 -0.05
0.0625 0.0625 -0.05
0.075 0.0625 -0.05
0.0875 0.0625 -0.05
0.1 0.0625 -0.05
0.1125 0.0625 -0.05
0.125 0.0625 -0.05
0.1375 0.0625 -0.05
0.15 0.0625 -0.05
0.1625 0.0625 -0.05
0.175 0.0625 -0.05
0.1875 0.0625 -0.05
0.2 0.0625 -0.05
0.2125 0.0625 -0.05
0.225 0.0625 -0.05
0.2375 0.0625 -0.05
0.25 0.0625 -0.05
0.2625 0.0625 -0.05
0.275 0.0625 -0.05
0.2875 0.0625 -0.05
0.3 0.0625 -0.05
0.3125 0.0625 -0.05
0.325 0.0625 -0.05
0.3375 0.0625 -0.05
0.35 0.0625 -0.05
0.3625 0.0625 -0.05
0.375 0.0625 -0.05
0.3875 0.0625 -0.05
0.4 0.0625 -0.05
0.4125 0.0625 -0.05
0.425 0.0625 -0.05
0.4375 0.0625 -0.05
0.45 0.0625 -0.05
0.4625 0.0625 -0.05
0.475 0.0625 -0.05
0.4875 0.0625 -0.05
0.5 0.0625 -0.05
0.5125 0.0625 -0.05
0.525 0.0625 -0.05
0.5375 0.0625 -0.05
0.55 0.0625 -0.05
0.5625 0.0625 -0.05
0.575 0.0625 -0.05
0.5875 0.0625 -0.05
0.6 0.0625 -0.05
0.0 0.075 -0.05
0.0125 0.075 -0.05
0.025 0.075 -0.05
0.0375 0.075 -0.05
0.05 0.075 -0.05
0.0625 0.075 -0.05
0.075 0.075 -0.05
0.0875 0.075 -0.05
0.1 0.075 -0.05
0.1125 0.075 -0.05
0.125 0.075 -0.05
0.1375 0.075 -0.05
0.15 0.075 -0.05
0.1625 0.075 -0.05
0.175 0.075 -0.05
0.1875 0.075 -0.05
0.2 0.075 -0.05
0.2125 0.075 -0.05
0.225 0.075 -0.05
0.2375 0.075 -0.05
0.25 0.075 -0.05
0.2625 0.075 -0.05
0.275 0.075 -0.05
0.2875 0.075 -0.05
0.3 0.075 -0.05
0.3125 0.075 -0.05
0.325 0.075 -0.05
0.3375 0.075 -0.05
0.35 0.075 -0.05
0.3625 0.075 -0.05
0.375 0.075 -0.05
0.3875 0.075 -0.05
0.4 0.075 -0.05
0.4125 0.075 -0.05
0.425 0.075 -0.05
0.4375 0.075 -0.05
0.45 0.075 -0.05
0.4625 0.075 -0.05
0.475 0.075 -0.05
0.4875 0.075 -0.05
0.5 0.075 -0.05
0.5125 0.075 -0.05
0.525 0.075 -0.05
0.5375 0.075 -0.05
0.55 0.075 -0.05
0.5625 0.075 -0.05
0.575 0.075 -0.05
0.5875 0.075 -0.05
0.6 0.075 -0.05
0.0 0.0875 -0.05
0.0125 0.0875 -0.05
0.025 0.0875 -0.05
0.0375 0.0875 -0.05
0.05 0.0875 -0.05
0.0625 0.0875 -0.05
0.075 0.0875 -0.05
0.0875 0.0875 -0.05
0.1 0.0875 -0.05
0.1125 0.0875 -0.05
0.125 0.0875 -0.05
0.1375 0.0875 -0.05
0.15 0.0875 -0.05
0.1625 0.0875 -0.05
0.175 0.0875 -0.05
0.1875 0.0875 -0.05
0.2 0.0875 -0.05
0.2125 0.0875 -0.05
0.225 0.0875 -0.05
0.2375 0.0875 -0.05
0.25 0.0875 -0.05
0.2625 0.0875 -0.05
0.275 0.0875 -0.05
0.2875 0.0875 -0.05
0.3 0.0875 -0.05
0.3125 0.0875 -0.05
0.325 0.0875 -0.05
0.3375 0.0875 -0.05
0.35 0.0875 -0.05
0.3625 0.0875 -0.05
0.375 0.0875 -0.05
0.3875 0.0875 -0.05
0.4 0.0875 -0.05
0.4125 0.0875 -0.05
0.425 0.0875 -0.05
0.4375 0.0875 -0.05
0.45 0.0875 -0.05
0.4625 0.0875 -0.05
0.475 0.0875 -0.05
0.4875 0.0875 -0.05
0.5 0.0875 -0.05
0.5125 0.0875 -0.05
0.525 0.0875 -0.05
0.5375 0.0875 -0.05
0.55 0.0875 -0.05
0.5625 0.0875 -0.05
0.575 0.0875 -0.05
0.5875 0.0875 -0.05
0.6 0.0875 -0.05
0.0 0.1 -0.05
0.0125 0.1 -0.05
0.025 0.1 -0.05
0.0375 0.1 -0.05
0.05 0.1 -0.05
0.0625 0.1 -0.05
0.075 0.1 -0.05
0.0875 0.1 -0.05
0.1 0.1 -0.05
0.1125 0.1 -0.05
0.125 0.1 -0.05
0.1375 0.1 -0.05
0.15 0.1 -0.05
0.1625 0.1 -0.05
0.175 0.1 -0.05
0.1875 0.1 -0.05
0.2 0.1 -0.05
0.2125 0.1 -0.05
0.225 0.1 -0.05
0.2375 0.1 -0.05
0.25 0.1 -0.05
0.2625 0.1 -0.05
0.275 0.1 -0.05
0.2875 0.1 -0.05
0.3 0.1 -0.05
0.3125 0.1 -0.05
0.325 0.1 -0.05
0.3375 0.1 -0.05
0.35 0.1 -0.05
0.3625 0.1 -0.05
0.375 0.1 -0.05
0.3875 0.1 -0.05
0.4 0.1 -0.05
0.4125 0.1 -0.05
0.425 0.1 -0.05
0.4375 0.1 -0.05
0.45 0.1 -0.05
0.4625 0.1 -0.05
0.475 0.1 -0.05
0.4875 0.1 -0.05
0.5 0.1 -0.05
0.5125 0.1 -0.05
0.525 0.1 -0.05
0.5375 0.1 -0.05
0.55 0.1 -0.05
0.5625 0.1 -0.05
0.575 0.1 -0.05
0.5875 0.1 -0.05
0.6 0.1 -0.05
0.0 0.1125 -0.05
0.0125 0.1125 -0.05
0.025 0.1125 -0.05
0.0375 0.1125 -0.05
0.05 0.1125 -0.05
0.0625 0.1125 -0.05
0.075 0.1125 -0.05
0.0875 0.1125 -0.05
0.1 0.1125 -0.05
0.1125 0.1125 -0.05
0.125 0.1125 -0.05
0.1375 0.1125 -0.05
0.15 0.1125 -0.05
0.1625 0.1125 -0.05
0.175 0.1125 -0.05
0.1875 0.1125 -0.05
0.2 0.1125 -0.05
0.2125 0.1125 -0.05
0.225 0.1125 -0.05
0.2375 0.1125 -0.05
0.25 0.1125 -0.05
0.2625 0.1125 -0.05
0.275 0.1125 -0.05
0.2875 0.1125 -0.05
0.3 0.1125 -0.05
0.3125 0.1125 -0.05
0.325 0.1125 -0.05
0.3375 0.1125 -0.05
0.35 0.1125 -0.05
0.3625 0.1125 -0.05
0.375 0.1125 -0.05
0.3875 0.1125 -0.05
0.4 0.1125 -0.05
0.4125 0.1125 -0.05
0.425 0.1125 -0.05
0.4375 0.1125 -0.05
0.45 0.1125 -0.05
0.4625 0.1125 -0.05
0.475 0.1125 -0.05
0.4875 0.1125 -0.05
0.5 0.1125 -0.05
0.5125 0.1125 -0.05
0.525 0.1125 -0.05
0.5375 0.1125 -0.05
0.55 0.1125 -0.05
0.5625 0.1125 -0.05
0.575 0.1125 -0.05
0.5875 0.1125 -0.05
0.6 0.1125 -0.05
0.0 0.125 -0.05
0.0125 0.125 -0.05
0.025 0.125 -0.05
0.0375 0.125 -0.05
0.05 0.125 -0.05
0.0625 0.125 -0.05
0.075 0.125 -0.05
0.0875 0.125 -0.05
0.1 0.125 -0.05
0.1125 0.125 -0.05
0.125 0.125 -0.05
0.1375 0.125 -0.05
0.15 0.125 -0.05
0.1625 0.125 -0.05
0.175 0.125 -0.05
0.1875 0.125 -0.05
0.2 0.125 -0.05
0.2125 0.125 -0.05
0.225 0.125 -0.05
0.2375 0.125 -0.05
0.25 0.125 -0.05
0.2625 0.125 -0.05
0.275 0.125 -0.05
0.2875 0.125 -0.05
0.3 0.125 -0.05
0.3125 0.125 -0.05
0.325 0.125 -0.05
0.3375 0.125 -0.05
0.35 0.125 -0.05
0.3625 0.125 -0.05
0.375 0.125 -0.05
0.3875 0.125 -0.05
0.4 0.125 -0.05
0.4125 0.125 -0.05
0.425 0.125 -0.05
0.4375 0.125 -0.05
0.45 0.125 -0.05
0.4625 0.125 -0.05
0.475 0.125 -0.05
0.4875 0.125 -0.05
0.5 0.125 -0.05
0.5125 0.125 -0.05
0.525 0.125 -0.05
0.5375 0.125 -0.05
0.55 0.125 -0.05
0.5625 0.125 -0.05
0.575 0.125 -0.05
0.5875 0.125 -0.05
0.6 0.125 -0.05
0.0 0.1375 -0.05
0.0125 0.1375 -0.05
0.025 0.1375 -0.05
0.0375 0.1375 -0.05
0.05 0.1375 -0.05
0.0625 0.1375 -0.05
0.075 0.1375 -0.05
0.0875 0.1375 -0.05
[...]
CELL_DATA 16128
SCALARS P float 1
LOOKUP_TABLE default
100000.0071402741
99999.98739231963
100000.02045925081
99999.96497999989
100000.05806231701
99999.90174614273
100000.16449720903
99999.72230286035
100000.46786817192
99999.20752930062
100001.3467087984
99997.69308132891
100003.99432507096
99992.95921791824
100012.73282550683
99976.06829346661
100047.24739348523
99900.65472010015
100222.98339358713
99467.29076307555
101355.80467805447
96507.0059872024
110010.54102492632
75286.60293262107
241794.11434126468
708500.4770634165
1.027222580094059e6
1.049221499877752e6
1.058921979398352e6
1.071020301668201e6
1.0820456057171705e6
1.092833102718645e6
1.1031297369895515e6
1.1130110419345517e6
1.122437866392939e6
1.131436253016878e6
1.1399483547357796e6
1.1480310288411316e6
1.1555284740624249e6
1.1626321342892554e6
1.1689122192515526e6
1.1750021571564837e6
1.1796680325612952e6
1.1849266905113147e6
1.1871042979746133e6
1.19249770230767e6
1.1899312862760024e6
1.1988922632281007e6
100000.00713588424
99999.98748549071
100000.02043844848
99999.96508209691
100000.05809468402
99999.90166309378
100000.16500161715
99999.72115141139
100000.47054329624
99999.20218606437
100001.35691210936
99997.67509810762
100004.0236274161
99992.91751619436
100012.777949773
99976.06423993595
100047.08030402932
99901.36891395456
100220.87108251476
99472.99581416338
101342.11884069408
96538.36076236982
109939.50364074121
75389.66335140225
239143.5297350349
706177.6477690217
1.0297165879315656e6
1.0538878664681301e6
1.063964811135775e6
1.076437841097419e6
1.08762223888301e6
1.0985227446338746e6
1.1089063508409467e6
1.1188733662289288e6
1.1283913509282805e6
1.1374891214078406e6
1.1461080712486166e6
1.1543032002632879e6
1.161915261310405e6
1.1691326153446657e6
1.1755196012162846e6
1.181707418736301e6
1.1864510790257347e6
1.1917737211852157e6
1.1939714630983341e6
1.1993927934214699e6
1.1967377241970648e6
1.2057979005239645e6
100000.00613098664
99999.9893156362
100000.0174264203
99999.97036602578
100000.04916348329
99999.91711771747
100000.13858318528
99999.7666939165
100000.39229307498
99999.33706624042
100001.12452379131
99998.07609430965
100003.33149832246
99994.11351369566
100010.71076022029
99979.64344581193
100040.8834543356
99912.1429258227
100202.1268193202
99505.88471936928
101283.47828036292
96641.4629137764
109730.66244961042
75666.24895039304
231327.659801534
694339.6091901436
1.0237197951337323e6
1.0508412724090621e6
1.0599964031283087e6
1.0723284872453331e6
1.0832827104828733e6
1.0940120141425433e6
1.104227211389653e6
1.1140281839622566e6
1.1233760132793651e6
1.1322986065799703e6
1.1407386604572234e6
1.1487521891951682e6
1.1561846820412911e6
1.1632249020121892e6
1.1694464089498261e6
1.1754765638054656e6
1.1800878338438496e6
1.1852905160895619e6
1.1874048407238303e6
1.1927746954605952e6
1.1900412672275766e6
1.199257668395207e6
100000.00475805208
99999.99182575797
100000.01330873254
99999.97758220987
100000.03698673393
99999.9381455101
100000.1027071959
99999.82838567009
100000.28657085942
99999.51874190543
100000.8125515864
99998.61245407806
100002.40922720979
99995.70139350145
100007.97446368622
99984.37458560511
100032.67874604328
99926.51314580659
100176.70604412128
99551.92184065832
101196.77066485718
96806.97145695305
109352.70524711773
76289.20298836978
219934.9365030375
678070.2989862803
1.0183672086902774e6
1.0510815070585373e6
1.0595080984632722e6
1.0721190129062254e6
1.083086579586529e6
1.0938426971800672e6
1.1040551903347995e6
1.1138473767792545e6
1.1231844461877495e6
1.1320995611348352e6
1.140539097865723e6
1.1485602616354865e6
1.1560117086337244e6
1.1630799393311383e6
1.169342861729273e6
1.175419737459974e6
1.1800894214946537e6
1.1853487831919312e6
1.1875124855371905e6
1.192952834435545e6
1.1901572660247753e6
1.1996259881126834e6
100000.003176413
99999.99470827518
100000.00859127713
99999.98582332407
100000.02311426504
99999.96203191137
100000.06205400238
99999.89811357029
100000.16734051837
99999.72322778885
100000.46191144224
99999.21488119727
100001.37281110408
99997.4900116179
100004.87595635919
99989.78396152973
100023.14190051882
99943.65843271984
100145.12876810241
99612.4214457724
101073.7229631039
97063.57029408516
108709.0772408799
77507.38042367972
205034.44455187273
655281.2310314331
1.0092604668927067e6
1.0496562364620368e6
1.0566715086455587e6
1.06930148411716e6
1.0800260967730393e6
1.0905997448788253e6
1.1006191792947021e6
1.1102202759756336e6
1.1193641463851724e6
1.128084349313181e6
1.1363288700782263e6
1.144154920050326e6
1.1514156099096243e6
1.1582953423694102e6
1.1643810940339104e6
1.1702841130753725e6
1.174800369052501e6
1.1799123943792225e6
1.1819481618789113e6
1.1873134900167538e6
1.1843395874422966e6
1.1940696247842603e6
100000.00156617859
99999.99761742924
100000.00384197588
99999.99407174994
100000.00928329998
99999.98573615558
100000.02186889299
99999.96678031367
100000.05029102902
99999.92349601246
100000.11894498862
99999.8042873354
100000.3562178108
99999.25462488594
100001.78636050987
99995.27237617111
100013.19938511396
99962.24720583504
100108.96806682115
99686.51760082696
100910.62849599012
97430.5468904079
107727.18032237864
79553.11751393923
187439.00981263744
626603.598669527
997399.0740419828
1.048632835853521e6
1.0541296968795487e6
1.0669347448252216e6
1.0775080693462787e6
1.0879764370481744e6
1.0978671157104932e6
1.1073345525543832e6
1.1163407769841708e6
1.1249232801385638e6
1.1330346145415462e6
1.1407340474585535e6
1.14788111912719e6
1.1546592220239097e6
1.1606655082782665e6
1.166502936196199e6
1.1709821798400409e6
1.1760702954362636e6
1.1780918627338512e6
1.1835014494631523e6
1.1803996544994125e6
1.1905057752216272e6
100000.00008946622
100000.00024321281
99999.99956932107
100000.00141639095
99999.99705016256
100000.00652806784
99999.98687929023
100000.0261409528
99999.94975468391
100000.09459602645
99999.82702562348
100000.30533347091
99999.48998297538
100000.7698299131
99999.09216793784
100000.1837047492
100003.9409237768
99980.52729219584
100070.81976005812
99770.95173559745
100709.42553510479
97915.0070640657
106369.63219147675
82616.58505509267
167881.2948069102
591724.9442668348
981413.1550885183
1.0470133956605794e6
1.0507318225778968e6
1.0635984877823433e6
1.0739123921091014e6
1.0841680899985994e6
1.093827606913083e6
1.1030580264272771e6
1.1118204158498882e6
1.1201533771233917e6
1.1280121163781136e6
1.1354558412172324e6
1.1423489092085434e6
1.1488714854636884e6
1.1546298134673703e6
1.1602172321221875e6
1.1644607859872878e6
1.1693181231992939e6
1.1711154495587477e6
1.176393911643892e6
1.172985091308644e6
1.1834860094458442e6
99999.99886359206
100000.00236417439
99999.9961358228
100000.00721178403
99999.98751700511
100000.02247384672
99999.9604478673
100000.07028917341
99999.87611358799
100000.21817558735
99999.61870556555
100000.6600173592
99998.8778459168
100001.84937414121
99997.1285865293
100003.91337928419
99996.45441029323
99996.54527651035
100034.14448201316
99859.66241738274
100480.96065697298
98502.91538072674
104665.6755080124
86755.82304402573
147356.10580874977
550850.7995272537
960672.9116581813
1.044992498401497e6
1.0470234885513615e6
1.0599185761757917e6
1.0699886117500218e6
1.0800258244071018e6
1.0894481795201704e6
1.0984305051351727e6
1.1069356718592215e6
1.1150043750724157e6
1.1225965376752825e6
1.1297737879783737e6
1.1364089498949186e6
1.142683586648226e6
1.1482190836205655e6
1.1536054248150513e6
1.1576912092544609e6
1.1624275456373263e6
1.164131041784557e6
1.1694311673578348e6
1.165807836639461e6
1.1768636727221354e6
99999.9979445434
100000.0038817549
99999.9937001521
100000.0111877947
99999.9811350614
100000.03280103841
99999.94390227231
100000.09690003832
99999.83349395572
100000.2867719655
99999.50771975011
100000.84257369518
99998.56904205469
100002.39743185381
99996.08564576184
100006.07752251104
99991.53187358977
100008.63083800134
100002.56959446747
99944.6416526573
100243.35750296568
99155.72678076488
102727.6841977574
91818.80966349014
127024.17076082315
504274.9905673304
934067.2520011982
1.0421006609301148e6
1.042860272910694e6
1.055615073328487e6
1.0654069375658426e6
1.075156861318017e6
1.0842766408142545e6
1.0929385306759223e6
1.1011078129431228e6
1.1088245042320206e6
1.1160504206509262e6
1.1228455919424552e6
1.1290855746569159e6
1.1349463347700802e6
1.1400542033002889e6
1.1449879329705604e6
1.1486047163042543e6
1.1528589081982006e6
1.1540467769427428e6
1.1589812897391324e6
1.1547149576338723e6
1.1663091261460274e6
99999.9973254986
100000.00482568338
99999.9922067071
100000.0134733468
99999.97765274775
100000.03801154385
99999.93629017919
100000.1077541687
99999.81865292847
100000.30615001719
99999.48412118899
100000.86948814495
99998.53790532077
100002.44966330488
99995.92659647066
100006.67283908691
99989.36105315483
100015.98589972265
99978.76912338934
100017.99874792738
100019.78427584264
99810.80428075853
100750.0198165883
97375.10492321012
108250.93894462321
452676.5830192003
900517.4440873789
1.0378665921636113e6
1.038422135630186e6
1.0508015411698755e6
1.0603243432367882e6
1.0697443216301242e6
1.0785238261154066e6
1.0868203010654538e6
1.0946042111274798e6
1.1019149597821117e6
1.1087181402962324e6
1.115075653105968e6
1.1208721188905945e6
1.1262879304635532e6
1.130969945667492e6
1.135503834048829e6
1.1387804847249757e6
1.1427662677032535e6
1.1437509461836617e6
1.1486772346142328e6
1.1441000935228155e6
1.1565263676437386e6
99999.99695165642
100000.005325397
99999.9914323833
100000.0145122469
99999.97625515074
100000.03964491574
99999.93476278891
100000.10812752995
99999.82190028614
100000.29400298832
99999.51587217533
100000.79816007485
99998.68313949571
100002.18091901488
99996.3607650547
100006.15271535786
99989.33061871043
100019.14886675666
99963.41121220864
100074.11583157041
99833.53049219462
100390.9323980795
98979.73337480875
102706.42534863128
92538.57025346003
397149.5296993271
858871.792475761
1.0314390683554125e6
1.0337855414013738e6
1.0454292393599044e6
1.0546916722297985e6
1.0637213235498718e6
1.072103989613668e6
1.0799673433824e6
1.0872874761978101e6
1.0940991114760523e6
1.1003660507725652e6
1.1061436778968303e6
1.111311642888065e6
1.1160361514630679e6
1.1199527812810617e6
1.1236236624500817e6
1.1259151496304888e6
1.128805928134907e6
1.128498358775572e6
1.132313258967378e6
1.1260966305822942e6
1.1391199386437724e6
99999.99674772966
100000.00555252345
99999.9910832721
100000.014880878
99999.9758859072
100000.03969400912
99999.93561495632
100000.10493689727
99999.83037300943
100000.27421329576
99999.55878490559
100000.70994756455
99998.85608743418
100001.85963688085
99996.91300949953
100005.33134981932
99990.13164313453
100019.97420131946
99954.76640715277
100111.37265502411
99701.85112090321
100821.78748664104
97662.16768005426
106912.54226531283
81355.38947163444
339285.0403880156
808111.2114460962
1.0216265060895246e6
1.0290722268547614e6
1.03952571557223e6
1.0485529110173146e6
1.0571394621902073e6
1.0650755772823456e6
1.0724461101804953e6
1.0792346462353063e6
1.0854710280617105e6
1.091119047430723e6
1.0962322244296574e6
1.1006959515450709e6
1.1046807480158182e6
1.1078472798675876e6
1.1107769278283503e6
1.1123990642400645e6
1.1147266854560063e6
1.114026450850565e6
1.1177084923472987e6
1.1111451681199702e6
1.1252775235006209e6
99999.99664947594
100000.00565148157
99999.99091317334
100000.01505905155
99999.97566473564
100000.03982319761
99999.93573158512
100000.10405253319
99999.83301422255
100000.2676392073
99999.57352118591
100000.6789350428
99998.91773548309
100001.74482276624
99997.10685660255
100005.06616758081
99990.28207138505
100020.8346949094
99949.66371792466
100131.76689177327
99632.55869339514
101049.85950312737
96983.50643514174
109140.10967151345
75808.32785961461
281144.31695673155
747545.2884141398
1.0068187457390128e6
1.0243409154777119e6
1.0331121809695405e6
1.0419217927193319e6
1.0500113674844804e6
1.0574443610366196e6
1.064252869513133e6
1.0704256388905e6
1.0759819338245715e6
1.0808758298688796e6
1.0851436869255824e6
1.088648687195693e6
1.09152427858337e6
1.0933773511102982e6
1.0947155851196768e6
1.0943338908850686e6
1.0942025401528971e6
1.0902282579970385e6
1.0905437724068428e6
1.078980750181386e6
1.0930178344856526e6
99999.99662770852
100000.0056838872
99999.99081994948
100000.01523935837
99999.97524472878
100000.04068143576
99999.93389945471
100000.10778133341
99999.82540341874
100000.282839769
99999.54339663376
100000.73781854758
99998.80386473695
100001.96240302273
99996.69678727888
100005.82893418286
99988.89546969952
100023.31462471215
99945.47825228743
100138.68984136729
99623.63839190447
101059.86964542104
97003.6032993173
109018.213747287
76188.59449687159
225118.92960731912
677070.6750771871
985033.8550512113
1.0195374120252571e6
1.026259848383134e6
1.0348362319652812e6
1.04238148759501e6
1.0492561447909253e6
1.0554386760696273e6
1.0609208102593676e6
1.0657104184419909e6
1.069752597753156e6
1.0730709036841574e6
1.0755212752765345e6
1.077227513013218e6
1.0778148969956776e6
1.0778052745018976e6
1.0761143380426478e6
1.0747143862188014e6
1.0699451386381704e6
1.0693685396478062e6
1.0578010824356182e6
1.0710821432335386e6
99999.99669478978
100000.0056112059
99999.99087674118
100000.01526191692
99999.9749433702
100000.04163456195
99999.9313548706
100000.11374508783
99999.81205667624
100000.31136482792
99999.48400618693
100000.85831375301
99998.56471636916
100002.42561563541
99995.82624636692
100007.3981498176
99986.26518184623
100027.15604930429
99941.89957978131
100134.566678093
99664.88760791544
100884.18011848195
97613.85311413868
106918.20377123002
81704.7774306475
173858.45183890394
597386.4289490788
953951.5371130626
1.0143219425913584e6
1.019081165161848e6
1.0273319414388036e6
1.0342925827335138e6
1.0405514162395733e6
1.0460425730629932e6
1.0507529730947404e6
1.0546725342796054e6
1.0577247371588189e6
1.059899433326772e6
1.0610036759834613e6
1.06108231085987e6
1.059629364204642e6
1.0569600411931332e6
1.0515953398821596e6
1.0450794391989296e6
1.032420351084278e6
1.0218097133962095e6
992468.6281179313
998951.5965518134
99999.99689009371
100000.0053264046
99999.99127808138
100000.0147178958
99999.97555793205
100000.0411023956
99999.93118347284
100000.11594298147
99999.80457836585
100000.33091105656
99999.43797233819
100000.95958303986
99998.35219753839
100002.85270435171
99995.00770647009
100008.86955890364
99983.90177638766
100030.08115611585
99941.51585724868
100119.3612971293
99742.05079242868
100592.47079660257
98570.93680833983
103724.80228471007
90505.32422807797
130404.72858445064
510267.01323845354
910976.8384210209
1.0078020962137297e6
1.011717069947446e6
1.0194398708565494e6
1.0257920935743059e6
1.0313840550418101e6
1.0361291722718949e6
1.0400020535275466e6
1.042973025269272e6
1.044942965762385e6
1.0458691443101916e6
1.045523503471256e6
1.043896469725401e6
1.0404560901958118e6
1.0354402289528986e6
1.027515972433867e6
1.0180329304166202e6
1.0032862745122145e6
988437.0788580145
960315.9445581164
927285.6616823451
99999.99725024057
100000.00472341654
99999.99221906599
100000.01318932942
99999.97791800031
100000.0374137759
99999.936705298
100000.10780609725
99999.81590373814
100000.31613964486
99999.45470416058
100000.9458774531
99998.35045487572
100002.89340460692
99994.89646285337
100009.04916355657
99983.88412570996
100028.77080946037
99948.64646535552
100091.00460932672
99841.01361741356
100266.70141672659
99582.66205602926
100527.7846948044
99792.02242132972
98115.0178322342
418926.77936259564
853487.1874038652
998204.3510036366
1.0042862148167611e6
1.0111774641984125e6
1.0169216150129929e6
1.0218076036547638e6
1.0257633300236918e6
1.0287430006134426e6
1.0306938263038123e6
1.0314853014488786e6
1.0310268532667162e6
1.0290218554386368e6
1.0253416805097057e6
1.0192710234346476e6
1.0106563934027476e6
997508.5037203489
979579.7022988857
950153.3851750621
907354.274413895
821983.7137214132
670752.8248541856
99999.99777775347
100000.00377307039
99999.99376159863
100000.010519018
99999.98237115493
100000.02980903136
99999.9495359043
100000.0859564352
99999.85301664613
100000.25277113834
99999.56315587375
100000.75902988247
99998.67518242502
100002.32062851108
99995.93003034873
100007.1184485603
99987.67112242243
100020.8609967565
99966.3784552802
100048.31067113602
99950.01469380944
99973.91609377511
100392.00609230813
98228.5525887291
106531.77383552013
79711.99770414789
328177.22162473074
779597.8025102102
982709.9803787647
996822.0786491866
1.0025692775118587e6
1.007727259458186e6
1.0118864422532461e6
1.0150263505064646e6
1.0170785528745413e6
1.0179672941327393e6
1.017531108517869e6
1.015629586332031e6
1.011905828952949e6
1.0061225593609327e6
997427.3735275087
985402.4376593239
967766.5991620503
943590.8717877025
905934.206178536
851408.2790266209
756425.1597463991
600927.1819975077
99999.99842384389
100000.00256704958
99999.9957553847
100000.0069736528
99999.98846341883
100000.01907883711
99999.96831470441
100000.05274547814
99999.9118756061
100000.14773414892
99999.7515172901
100000.41906887313
99999.29256567424
100001.19154505346
99998.01045882855
100003.25234129524
99994.92537680772
100007.09245887183
99992.87067327103
99996.48436747552
100053.54655415734
99762.42329050414
100839.81214237622
97275.5614434911
108755.13683240894
75417.43965563696
243723.45247776582
689266.4083419689
957706.3692595408
989217.1426771255
993706.5738197672
998281.7727706074
1.0017038986460766e6
1.0040139488372783e6
1.0051230111392606e6
1.0049351267422974e6
1.0032573162106135e6
999910.0123863482
994480.0962713307
986649.3938371422
975470.0972207751
960376.9616789726
938983.0732468987
910227.4345249339
867557.1793376371
808724.3255369506
714792.0568222044
582237.2701165944
99999.99909525941
100000.00130395028
99999.99786056139
100000.00320253118
99999.99500816727
100000.00744776554
99999.98889101282
100000.01597229033
99999.97779378633
100000.0287763314
99999.96723904584
100000.02569472177
100000.01325415078
99999.86573976741
100000.4560893296
99998.73806518233
100003.23505417367
99991.92666516744
100020.05635337012
99949.54343865142
100128.87581956058
99662.59219350561
100899.65706461576
97569.92173669854
106884.32400193888
81946.83630306117
171166.13446822032
584727.0296689792
919055.3950119881
980943.2518903592
984766.5475741865
988684.5916494823
991359.5648115375
992834.0449041094
993002.6361353584
991750.4575873824
988860.254743382
984121.5416476799
977085.0528342869
967387.4332671501
954039.2384736661
936450.2346417945
912266.6215781961
880672.3819359739
835660.6452210234
776924.7532641881
688677.1781770448
578220.9373782454
99999.99968346287
100000.00022012347
99999.99966851344
99999.99999617576
100000.0005424198
99999.99769121286
100000.00602124973
99999.98561121951
100000.03174781532
99999.93230275835
100000.14046588285
99999.71319911834
100000.57885558928
99998.8399946266
100002.31489522879
99995.3872184794
100009.19827545194
99981.59935275328
100036.98944495342
99925.05533940063
100153.10843089489
99683.32876476209
100661.98288233527
98600.70245676285
103047.90970128184
93615.0340367664
116219.4349742409
470706.51466141397
862072.0041518414
970270.620671132
975884.4070942706
979009.2795917402
980938.4350051594
981586.9074845882
980838.5022095734
978560.2863438211
974521.1285199235
968490.3565098993
960002.7132358293
948683.5626900174
933550.2922143411
914067.7740384329
888018.8313822773
854950.4414769671
809554.2070457874
752989.702060516
672494.3197473184
579080.3111600295
100000.00010279009
99999.99949807169
100000.0008633633
99999.99796107985
100000.00394895705
99999.99191753684
100000.01574216182
99999.96916646042
100000.05948812273
99999.88547659389
100000.21926183022
99999.58109667985
100000.79852042581
99998.47983770017
100002.8899671921
99994.51514198296
100010.37910772009
99980.46140841111
100036.41972570497
99933.29183363168
100118.1103300567
99803.82288982095
100279.53508004273
99760.54707435978
99521.39465787419
103915.23546684405
84052.65680423223
355239.8366635544
782603.1915596958
953500.9391145823
966958.3581924884
969272.6821609541
970495.4967262747
970355.6277925737
968736.8815136526