# vtk DataFile Version 2.0
JuliaCFD
ASCII
DATASET UNSTRUCTURED_GRID

POINTS 32898 float
0.0 0.0 -0.05
0.0125 0.0 -0.05
0.025 0.0 -0.05
0.0375 0.0 -0.05
0.05 0.0 -0.05
0.0625 0.0 -0.05
0.075 0.0 -0.05
0.0875 0.0 -0.05
0.1 0.0 -0.05
0.1125 0.0 -0.05
0.125 0.0 -0.05
0.1375 0.0 -0.05
0.15 0.0 -0.05
0.1625 0.0 -0.05
0.175 0.0 -0.05
0.1875 0.0 -0.05
0.2 0.0 -0.05
0.2125 0.0 -0.05
0.225 0.0 -0.05
0.2375 0.0 -0.05
0.25 0.0 -0.05
0.2625 0.0 -0.05
0.275 0.0 -0.05
0.2875 0.0 -0.05
0.3 0.0 -0.05
0.3125 0.0 -0.05
0.325 0.0 -0.05
0.3375 0.0 -0.05
0.35 0.0 -0.05
0.3625 0.0 -0.05
0.375 0.0 -0.05
0.3875 0.0 -0.05
0.4 0.0 -0.05
0.4125 0.0 -0.05
0.425 0.0 -0.05
0.4375 0.0 -0.05
0.45 0.0 -0.05
0.4625 0.0 -0.05
0.475 0.0 -0.05
0.4875 0.0 -0.05
0.5 0.0 -0.05
0.5125 0.0 -0.05
0.525 0.0 -0.05
0.5375 0.0 -0.05
0.55 0.0 -0.05
0.5625 0.0 -0.05
0.575 0.0 -0.05
0.5875 0.0 -0.05
0.6 0.0 -0.05
0.0 0.0125 -0.05
0.0125 0.0125 -0.05
0.025 0.0125 -0.05
0.0375 0.0125 -0.05
0.05 0.0125 -0.05
0.0625 0.0125 -0.05
0.075 0.0125 -0.05
0.0875 0.0125 -0.05
0.1 0.0125 -0.05
0.1125 0.0125 -0.05
0.125 0.0125 -0.05
0.1375 0.0125 -0.05
0.15 0.0125 -0.05
0.1625 0.0125 -0.05
0.175 0.0125 -0.05
0.1875 0.0125 -0.05
0.2 0.0125 -0.05
0.2125 0.0125 -0.05
0.225 0.0125 -0.05
0.2375 0.0125 -0.05
0.25 0.0125 -0.05
0.2625 0.0125 -0.05
0.275 0.0125 -0.05
0.2875 0.0125 -0.05
0.3 0.0125 -0.05
0.3125 0.0125 -0.05
0.325 0.0125 -0.05
0.3375 0.0125 -0.05
0.35 0.0125 -0.05
0.3625 0.0125 -0.05
0.375 0.0125 -0.05
0.3875 0.0125 -0.05
0.4 0.0125 -0.05
0.4125 0.0125 -0.05
0.425 0.0125 -0.05
0.4375 0.0125 -0.05
0.45 0.0125 -0.05
0.4625 0.0125 -0.05
0.475 0.0125 -0.05
0.4875 0.0125 -0.05
0.5 0.0125 -0.05
0.5125 0.0125 -0.05
0.525 0.0125 -0.05
0.5375 0.0125 -0.05
0.55 0.0125 -0.05
0.5625 0.0125 -0.05
0.575 0.0125 -0.05
0.5875 0.0125 -0.05
0.6 0.0125 -0.05
0.0 0.025 -0.05
0.0125 0.025 -0.05
0.025 0.025 -0.05
0.0375 0.025 -0.05
0.05 0.025 -0.05
0.0625 0.025 -0.05
0.075 0.025 -0.05
0.0875 0.025 -0.05
0.1 0.025 -0.05
0.1125 0.025 -0.05
0.125 0.025 -0.05
0.1375 0.025 -0.05
0.15 0.025 -0.05
0.1625 0.025 -0.05
0.175 0.025 -0.05
0.1875 0.025 -0.05
0.2 0.025 -0.05
0.2125 0.025 -0.05
0.225 0.025 -0.05
0.2375 0.025 -0.05
0.25 0.025 -0.05
0.2625 0.025 -0.05
0.275 0.025 -0.05
0.2875 0.025 -0.05
0.3 0.025 -0.05
0.3125 0.025 -0.05
0.325 0.025 -0.05
0.3375 0.025 -0.05
0.35 0.025 -0.05
0.3625 0.025 -0.05
0.375 0.025 -0.05
0.3875 0.025 -0.05
0.4 0.025 -0.05
0.4125 0.025 -0.05
0.425 0.025 -0.05
0.4375 0.025 -0.05
0.45 0.025 -0.05
0.4625 0.025 -0.05
0.475 0.025 -0.05
0.4875 0.025 -0.05
0.5 0.025 -0.05
0.5125 0.025 -0.05
0.525 0.025 -0.05
0.5375 0.025 -0.05
0.55 0.025 -0.05
0.5625 0.025 -0.05
0.575 0.025 -0.05
0.5875 0.025 -0.05
0.6 0.025 -0.05
0.0 0.0375 -0.05
0.0125 0.0375 -0.05
0.025 0.0375 -0.05
0.0375 0.0375 -0.05
0.05 0.0375 -0.05
0.0625 0.0375 -0.05
0.075 0.0375 -0.05
0.0875 0.0375 -0.05
0.1 0.0375 -0.05
0.1125 0.0375 -0.05
0.125 0.0375 -0.05
0.1375 0.0375 -0.05
0.15 0.0375 -0.05
0.1625 0.0375 -0.05
0.175 0.0375 -0.05
0.1875 0.0375 -0.05
0.2 0.0375 -0.05
0.2125 0.0375 -0.05
0.225 0.0375 -0.05
0.2375 0.0375 -0.05
0.25 0.0375 -0.05
0.2625 0.0375 -0.05
0.275 0.0375 -0.05
0.2875 0.0375 -0.05
0.3 0.0375 -0.05
0.3125 0.0375 -0.05
0.325 0.0375 -0.05
0.3375 0.0375 -0.05
0.35 0.0375 -0.05
0.3625 0.0375 -0.05
0.375 0.0375 -0.05
0.3875 0.0375 -0.05
0.4 0.0375 -0.05
0.4125 0.0375 -0.05
0.425 0.0375 -0.05
0.4375 0.0375 -0.05
0.45 0.0375 -0.05
0.4625 0.0375 -0.05
0.475 0.0375 -0.05
0.4875 0.0375 -0.05
0.5 0.0375 -0.05
0.5125 0.0375 -0.05
0.525 0.0375 -0.05
0.5375 0.0375 -0.05
0.55 0.0375 -0.05
0.5625 0.0375 -0.05
0.575 0.0375 -0.05
0.5875 0.0375 -0.05
0.6 0.0375 -0.05
0.0 0.05 -0.05
0.0125 0.05 -0.05
0.025 0.05 -0.05
0.0375 0.05 -0.05
0.05 0.05 -0.05
0.0625 0.05 -0.05
0.075 0.05 -0.05
0.0875 0.05 -0.05
0.1 0.05 -0.05
0.1125 0.05 -0.05
0.125 0.05 -0.05
0.1375 0.05 -0.05
0.15 0.05 -0.05
0.1625 0.05 -0.05
0.175 0.05 -0.05
0.1875 0.05 -0.05
0.2 0.05 -0.05
0.2125 0.05 -0.05
0.225 0.05 -0.05
0.2375 0.05 -0.05
0.25 0.05 -0.05
0.2625 0.05 -0.05
0.275 0.05 -0.05
0.2875 0.05 -0.05
0.3 0.05 -0.05
0.3125 0.05 -0.05
0.325 0.05 -0.05
0.3375 0.05 -0.05
0.35 0.05 -0.05
0.3625 0.05 -0.05
0.375 0.05 -0.05
0.3875 0.05 -0.05
0.4 0.05 -0.05
0.4125 0.05 -0.05
0.425 0.05 -0.05
0.4375 0.05 -0.05
0.45 0.05 -0.05
0.4625 0.05 -0.05
0.475 0.05 -0.05
0.4875 0.05 -0.05
0.5 0.05 -0.05
0.5125 0.05 -0.05
0.525 0.05 -0.05
0.5375 0.05 -0.05
0.55 0.05 -0.05
0.5625 0.05 -0.05
0.575 0.05 -0.05
0.5875 0.05 -0.05
0.6 0.05 -0.05
0.0 0.0625 -0.05
0.0125 0.0625 -0.05
0.025 0.0625 -0.05
0.0375 0.0625 -0.05
0.05 0.0625 -0.05
0.0625 0.0625 -0.05
0.075 0.0625 -0.05
0.0875 0.0625 -0.05
0.1 0.0625 -0.05
0.1125 0.0625 -0.05
0.125 0.0625 -0.05
0.1375 0.0625 -0.05
0.15 0.0625 -0.05
0.1625 0.0625 -0.05
0.175 0.0625 -0.05
0.1875 0.0625 -0.05
0.2 0.0625 -0.05
0.2125 0.0625 -0.05
0.225 0.0625 -0.05
0.2375 0.0625 -0.05
0.25 0.0625 -0.05
0.2625 0.0625 -0.05
0.275 0.0625 -0.05
0.2875 0.0625 -0.05
0.3 0.0625 -0.05
0.3125 0.0625 -0.05
0.325 0.0625 -0.05
0.3375 0.0625 -0.05
0.35 0.0625 -0.05
0.3625 0.0625 -0.05
0.375 0.0625 -0.05
0.3875 0.0625 -0.05
0.4 0.0625 -0.05
0.4125 0.0625 -0.05
0.425 0.0625 -0.05
0.4375 0.0625 -0.05
0.45 0.0625 -0.05
0.4625 0.0625 -0.05
0.475 0.0625 -0.05
0.4875 0.0625 -0.05
0.5 0.0625 -0.05
0.5125 0.0625 -0.05
0.525 0.0625 -0.05
0.5375 0.0625 -0.05
0.55 0.0625 -0.05
0.5625 0.0625 -0.05
0.575 0.0625 -0.05
0.5875 0.0625 -0.05
0.6 0.0625 -0.05
0.0 0.075 -0.05
0.0125 0.075 -0.05
0.025 0.075 -0.05
0.0375 0.075 -0.05
0.05 0.075 -0.05
0.0625 0.075 -0.05
0.075 0.075 -0.05
0.0875 0.075 -0.05
0.1 0.075 -0.05
0.1125 0.075 -0.05
0.125 0.075 -0.05
0.1375 0.075 -0.05
0.15 0.075 -0.05
0.1625 0.075 -0.05
0.175 0.075 -0.05
0.1875 0.075 -0.05
0.2 0.075 -0.05
0.2125 0.075 -0.05
0.225 0.075 -0.05
0.2375 0.075 -0.05
0.25 0.075 -0.05
0.2625 0.075 -0.05
0.275 0.075 -0.05
0.2875 0.075 -0.05
0.3 0.075 -0.05
0.3125 0.075 -0.05
0.325 0.075 -0.05
0.3375 0.075 -0.05
0.35 0.075 -0.05
0.3625 0.075 -0.05
0.375 0.075 -0.05
0.3875 0.075 -0.05
0.4 0.075 -0.05
0.4125 0.075 -0.05
0.425 0.075 -0.05
0.4375 0.075 -0.05
0.45 0.075 -0.05
0.4625 0.075 -0.05
0.475 0.075 -0.05
0.4875 0.075 -0.05
0.5 0.075 -0.05
0.5125 0.075 -0.05
0.525 0.075 -0.05
0.5375 0.075 -0.05
0.55 0.075 -0.05
0.5625 0.075 -0.05
0.575 0.075 -0.05
0.5875 0.075 -0.05
0.6 0.075 -0.05
0.0 0.0875 -0.05
0.0125 0.0875 -0.05
0.025 0.0875 -0.05
0.0375 0.0875 -0.05
0.05 0.0875 -0.05
0.0625 0.0875 -0.05
0.075 0.0875 -0.05
0.0875 0.0875 -0.05
0.1 0.0875 -0.05
0.1125 0.0875 -0.05
0.125 0.0875 -0.05
0.1375 0.0875 -0.05
0.15 0.0875 -0.05
0.1625 0.0875 -0.05
0.175 0.0875 -0.05
0.1875 0.0875 -0.05
0.2 0.0875 -0.05
0.2125 0.0875 -0.05
0.225 0.0875 -0.05
0.2375 0.0875 -0.05
0.25 0.0875 -0.05
0.2625 0.0875 -0.05
0.275 0.0875 -0.05
0.2875 0.0875 -0.05
0.3 0.0875 -0.05
0.3125 0.0875 -0.05
0.325 0.0875 -0.05
0.3375 0.0875 -0.05
0.35 0.0875 -0.05
0.3625 0.0875 -0.05
0.375 0.0875 -0.05
0.3875 0.0875 -0.05
0.4 0.0875 -0.05
0.4125 0.0875 -0.05
0.425 0.0875 -0.05
0.4375 0.0875 -0.05
0.45 0.0875 -0.05
0.4625 0.0875 -0.05
0.475 0.0875 -0.05
0.4875 0.0875 -0.05
0.5 0.0875 -0.05
0.5125 0.0875 -0.05
0.525 0.0875 -0.05
0.5375 0.0875 -0.05
0.55 0.0875 -0.05
0.5625 0.0875 -0.05
0.575 0.0875 -0.05
0.5875 0.0875 -0.05
0.6 0.0875 -0.05
0.0 0.1 -0.05
0.0125 0.1 -0.05
0.025 0.1 -0.05
0.0375 0.1 -0.05
0.05 0.1 -0.05
0.0625 0.1 -0.05
0.075 0.1 -0.05
0.0875 0.1 -0.05
0.1 0.1 -0.05
0.1125 0.1 -0.05
0.125 0.1 -0.05
0.1375 0.1 -0.05
0.15 0.1 -0.05
0.1625 0.1 -0.05
0.175 0.1 -0.05
0.1875 0.1 -0.05
0.2 0.1 -0.05
0.2125 0.1 -0.05
0.225 0.1 -0.05
0.2375 0.1 -0.05
0.25 0.1 -0.05
0.2625 0.1 -0.05
0.275 0.1 -0.05
0.2875 0.1 -0.05
0.3 0.1 -0.05
0.3125 0.1 -0.05
0.325 0.1 -0.05
0.3375 0.1 -0.05
0.35 0.1 -0.05
0.3625 0.1 -0.05
0.375 0.1 -0.05
0.3875 0.1 -0.05
0.4 0.1 -0.05
0.4125 0.1 -0.05
0.425 0.1 -0.05
0.4375 0.1 -0.05
0.45 0.1 -0.05
0.4625 0.1 -0.05
0.475 0.1 -0.05
0.4875 0.1 -0.05
0.5 0.1 -0.05
0.5125 0.1 -0.05
0.525 0.1 -0.05
0.5375 0.1 -0.05
0.55 0.1 -0.05
0.5625 0.1 -0.05
0.575 0.1 -0.05
0.5875 0.1 -0.05
0.6 0.1 -0.05
0.0 0.1125 -0.05
0.0125 0.1125 -0.05
0.025 0.1125 -0.05
0.0375 0.1125 -0.05
0.05 0.1125 -0.05
0.0625 0.1125 -0.05
0.075 0.1125 -0.05
0.0875 0.1125 -0.05
0.1 0.1125 -0.05
0.1125 0.1125 -0.05
0.125 0.1125 -0.05
0.1375 0.1125 -0.05
0.15 0.1125 -0.05
0.1625 0.1125 -0.05
0.175 0.1125 -0.05
0.1875 0.1125 -0.05
0.2 0.1125 -0.05
0.2125 0.1125 -0.05
0.225 0.1125 -0.05
0.2375 0.1125 -0.05
0.25 0.1125 -0.05
0.2625 0.1125 -0.05
0.275 0.1125 -0.05
0.2875 0.1125 -0.05
0.3 0.1125 -0.05
0.3125 0.1125 -0.05
0.325 0.1125 -0.05
0.3375 0.1125 -0.05
0.35 0.1125 -0.05
0.3625 0.1125 -0.05
0.375 0.1125 -0.05
0.3875 0.1125 -0.05
0.4 0.1125 -0.05
0.4125 0.1125 -0.05
0.425 0.1125 -0.05
0.4375 0.1125 -0.05
0.45 0.1125 -0.05
0.4625 0.1125 -0.05
0.475 0.1125 -0.05
0.4875 0.1125 -0.05
0.5 0.1125 -0.05
0.5125 0.1125 -0.05
0.525 0.1125 -0.05
0.5375 0.1125 -0.05
0.55 0.1125 -0.05
0.5625 0.1125 -0.05
0.575 0.1125 -0.05
0.5875 0.1125 -0.05
0.6 0.1125 -0.05
0.0 0.125 -0.05
0.0125 0.125 -0.05
0.025 0.125 -0.05
0.0375 0.125 -0.05
0.05 0.125 -0.05
0.0625 0.125 -0.05
0.075 0.125 -0.05
0.0875 0.125 -0.05
0.1 0.125 -0.05
0.1125 0.125 -0.05
0.125 0.125 -0.05
0.1375 0.125 -0.05
0.15 0.125 -0.05
0.1625 0.125 -0.05
0.175 0.125 -0.05
0.1875 0.125 -0.05
0.2 0.125 -0.05
0.2125 0.125 -0.05
0.225 0.125 -0.05
0.2375 0.125 -0.05
0.25 0.125 -0.05
0.2625 0.125 -0.05
0.275 0.125 -0.05
0.2875 0.125 -0.05
0.3 0.125 -0.05
0.3125 0.125 -0.05
0.325 0.125 -0.05
0.3375 0.125 -0.05
0.35 0.125 -0.05
0.3625 0.125 -0.05
0.375 0.125 -0.05
0.3875 0.125 -0.05
0.4 0.125 -0.05
0.4125 0.125 -0.05
0.425 0.125 -0.05
0.4375 0.125 -0.05
0.45 0.125 -0.05
0.4625 0.125 -0.05
0.475 0.125 -0.05
0.4875 0.125 -0.05
0.5 0.125 -0.05
0.5125 0.125 -0.05
0.525 0.125 -0.05
0.5375 0.125 -0.05
0.55 0.125 -0.05
0.5625 0.125 -0.05
0.575 0.125 -0.05
0.5875 0.125 -0.05
0.6 0.125 -0.05
0.0 0.1375 -0.05
0.0125 0.1375 -0.05
0.025 0.1375 -0.05
0.0375 0.1375 -0.05
0.05 0.1375 -0.05
0.0625 0.1375 -0.05
0.075 0.1375 -0.05
0.0875 0.1375 -0.05
[...]
CELL_DATA 16128
SCALARS P float 1
LOOKUP_TABLE default
100000.00258734921
99999.99494553599
100000.0081840116
99999.98522096497
100000.02500754003
99999.95608582778
100000.07554187482
99999.8683399061
100000.22853998035
99999.6002033178
100000.70290084904
99998.74923766076
100002.26213023593
99995.80260627871
100008.06379054316
99983.75721098632
100034.56034194266
99921.7889245723
100187.51464417193
99528.34602931168
101247.16118928485
96705.32069388605
109582.72454450915
75939.43060465824
224835.74778277046
685376.0777301263
1.0214045792057109e6
1.0504096594278102e6
1.0587556050385397e6
1.0712010563572268e6
1.082170444891056e6
1.0930047809024919e6
1.1033175842475528e6
1.1132216018650567e6
1.1226663055402497e6
1.131681472404395e6
1.1402081346185158e6
1.1483037845778414e6
1.1558125440165917e6
1.162926193534613e6
1.1692148427519188e6
1.1753124402421378e6
1.1799845306912134e6
1.1852491881292055e6
1.187430714724607e6
1.1928290592926645e6
1.190263359489475e6
1.1992287172954122e6
100000.00263415033
99999.99493217976
100000.00833266166
99999.9850025456
100000.02558561663
99999.95501035394
100000.07778092886
99999.86409332883
100000.23664276197
99999.58533441677
100000.72958992427
99998.7030512063
100002.33866176772
99995.68399948518
100008.22854645347
99983.58031073448
100034.60725678955
99922.33476641611
100185.2060864095
99535.50799669455
101228.16174989985
96751.58472871273
109467.05470514025
76135.78072129496
222292.5780932701
682881.8127687487
1.0236819366884722e6
1.0550680000142057e6
1.063781614457577e6
1.0766193319562247e6
1.087751538170689e6
1.0987012298620646e6
1.1091016060651513e6
1.1190912951086818e6
1.1286268349474296e6
1.137740957490886e6
1.1463740225519983e6
1.1545816944576702e6
1.1622046629915168e6
1.1694316302118192e6
1.1758268378658397e6
1.182022009361521e6
1.18677161647096e6
1.1921000342600578e6
1.194301505938555e6
1.1997276518601202e6
1.197073164529015e6
1.2061377552074362e6
100000.0018409125
99999.99640677957
100000.00589948843
99999.98932312016
100000.01822614984
99999.96787479008
100000.0555797241
99999.90275557427
100000.16951694137
99999.70229156356
100000.52579635149
99999.05885479086
100001.7168175892
99996.7730282371
100006.31789201514
99986.94553697293
100028.65713122589
99932.9565741727
100166.03945565198
99570.81090071183
101160.52678844375
96881.94227712639
109166.57399316707
76643.97689061856
214865.48465266963
670930.4863257911
1.017327055672945e6
1.0520532392413786e6
1.0598151587332047e6
1.072509943686981e6
1.0834097679545903e6
1.0941866896379457e6
1.1044182162963413e6
1.1142416381844948e6
1.123607071814763e6
1.1325461238076396e6
1.141000444301797e6
1.149026667759158e6
1.1564702185208406e6
1.1635201892428328e6
1.1697500477686021e6
1.1757876666368719e6
1.1804049889011271e6
1.1856135254997362e6
1.1877316638307201e6
1.1931063912094762e6
1.1903735822796053e6
1.1995944912452656e6
100000.00076710102
99999.99841188481
100000.0026030478
99999.99516860326
100000.00829057649
99999.98519482517
100000.02577184458
99999.95447953527
100000.08006090335
99999.85744752326
100000.2567962562
99999.52593631868
100000.90510862393
99998.1868440847
100003.84849084751
99991.2851417437
100020.96973399339
99946.80289440714
100140.55575630305
99619.3992792523
101062.34015690457
97084.73727693512
108660.97816311108
77598.37140986446
204042.14816128602
654397.1292726616
1.0113609720402036e6
1.0523139573854906e6
1.059316094378451e6
1.0722956495361603e6
1.0832117640995472e6
1.0940165440864353e6
1.104246451734702e6
1.114061484817879e6
1.1234164055268415e6
1.1323480301597868e6
1.1408018147035392e6
1.1488356016326363e6
1.1562980191671648e6
1.1633759050008138e6
1.1696470935393723e6
1.1757313535729167e6
1.1804070364699783e6
1.1856722061991233e6
1.187839708004564e6
1.193284922201424e6
1.1904899477143905e6
1.1999632625864947e6
99999.99955721604
100000.00066271883
99999.99891331946
100000.00168718585
99999.99724561322
100000.00437934503
99999.99286360161
100000.01138943373
99999.98194359195
100000.02713771055
99999.96327665939
100000.03486301113
100000.02066415278
99999.73084354488
100001.13593622854
99996.10507027815
100012.26808152112
99962.9401607192
100109.5549794215
99681.86426357376
100927.3493061432
97383.03557851315
107873.19076683847
79214.11913220187
189943.53108726686
631327.321208924
1.0014317820392316e6
1.05090947929495e6
1.056482674965863e6
1.0694765193027523e6
1.0801515592768062e6
1.0907722512641593e6
1.1008091118548342e6
1.110432665964471e6
1.1195942594052928e6
1.1283308217180765e6
1.1365894930038268e6
1.1444280748397028e6
1.1516996615619785e6
1.158588978976974e6
1.1646829403373816e6
1.1705932841738844e6
1.1751155005648586e6
1.1802332852051947e6
1.1822728413383728e6
1.1876430151174976e6
1.1846696979539858e6
1.1944044029536217e6
99999.9983705059
100000.0028479344
99999.99534265463
100000.00795264872
99999.98668183273
100000.02262581339
99999.96172007387
100000.06499687873
99999.88989134924
100000.18584961757
99999.68922939354
100000.5101290662
99999.19218330481
100001.18754181532
99998.5428991185
100000.81125264557
100003.49375528371
99979.94971400504
100074.92509262683
99756.3777132575
100754.69126878752
97788.21984576045
106757.28727193139
81670.35922298659
173380.8710747103
602366.739443856
988497.252005705
1.049868275155304e6
1.0539458034459823e6
1.0671023478933247e6
1.0776319813720738e6
1.0881463408700023e6
1.0980554710180594e6
1.107545479599258e6
1.116569654423699e6
1.125168557761784e6
1.133294047934567e6
1.1410059633599329e6
1.1481638677919905e6
1.1549514783420872e6
1.1609659077297123e6
1.1668105942691672e6
1.1712957645718548e6
1.176389603719138e6
1.1784149722597438e6
1.1838294033951105e6
1.180728202454532e6
1.1908390702044999e6
99999.99734377384
100000.00470206975
99999.99232664856
100000.01317922228
99999.97794673401
100000.03755905885
99999.93647253836
100000.10806466713
99999.81654286793
100000.31147746913
99999.4732826678
100000.8842445891
99998.53744034647
100002.35172546597
99996.42565682603
100004.7881623691
99995.69741722947
99996.06656314107
100039.51164928338
99838.62468038917
100550.39430662697
98298.00282380325
105305.09300901419
85093.2179879682
155106.55850267466
567281.5834275226
971194.0637940901
1.0481686073678071e6
1.0505692315075798e6
1.0637572593578924e6
1.0740364036899933e6
1.08433556614339e6
1.094014308636408e6
1.1032670130524063e6
1.1120473521982455e6
1.1203965798170518e6
1.1282693622313428e6
1.1357254327044236e6
1.1426292015658203e6
1.1491611486287508e6
1.154927496047605e6
1.1605220453239146e6
1.1647714268989142e6
1.1696343807486207e6
1.171435460145352e6
1.176718715570112e6
1.173310481270953e6
1.1838162060884156e6
99999.99656719275
100000.0060537655
99999.99014523433
100000.01686734709
99999.97189393127
100000.04767846483
99999.91973646393
100000.13598390736
99999.77003544716
100000.38955295474
99999.34129830738
100001.11066679722
99998.14076544029
100003.06946377513
99995.06731021118
100007.51086974629
99989.85998366599
100009.43946253623
100006.84629498562
99921.80053875643
100327.56177785399
98889.89374752976
103574.14962170992
89463.2235703419
136125.56316595635
526351.4015509511
948887.748069401
1.0459569471209394e6
1.0469013332274943e6
1.0600629580185174e6
1.070112297164577e6
1.0801897808394989e6
1.0896326023107616e6
1.098637057971234e6
1.1071603070973721e6
1.1152452148295813e6
1.1228513506170202e6
1.130040829837342e6
1.136686569675276e6
1.1429704461171865e6
1.1485138491445694e6
1.15390721331081e6
1.1579987621924449e6
1.162740655343236e6
1.1644479171982035e6
1.169752818610778e6
1.1661301122329151e6
1.1771908151718855e6
99999.99607180513
100000.00685202215
99999.98887834666
100000.01888837905
99999.96873000565
100000.05264495032
99999.91207796437
100000.1477771216
99999.75211381857
100000.41682765259
99999.29956521586
100001.1767523521
99998.0284054846
100003.28483442448
99994.58985351652
100008.70845134913
99986.59615347699
100018.65445668683
99980.25631863633
99998.09185560839
100105.39779132153
99518.9804252789
101696.31322636614
94549.4134777886
117607.59676401061
479965.60078571073
920484.9441273584
1.042707211891726e6
1.042807590283772e6
1.0557404544603846e6
1.06553141656508e6
1.075317315132535e6
1.0844588818952239e6
1.0931425737721284e6
1.1013299459240085e6
1.1090626552877463e6
1.1163023626675326e6
1.1231095427368481e6
1.1293598820692885e6
1.135229652942458e6
1.1403452104117775e6
1.1452857408615933e6
1.1489080947223082e6
1.1531676435070336e6
1.1543591473435818e6
1.1592983394695632e6
1.1550326162157084e6
1.1666316804058491e6
99999.99583240142
100000.00716217647
99999.98841137253
100000.01947802812
99999.96801680309
100000.05329443415
99999.91194879044
100000.14629684399
99999.7576020161
100000.40256581678
99999.33178736341
100001.11052214194
99998.15373673185
100003.07152133487
99994.88781879471
100008.50114527628
99985.87444268876
100023.29563285052
99961.78892398652
100060.48494752058
99906.29096578102
100120.8002085998
99870.74636572592
99855.49985715713
100907.4504348735
428903.4842468546
884942.5070899669
1.0378738788060341e6
1.038472419969786e6
1.050901966659467e6
1.0604500000575664e6
1.0699009916100043e6
1.078703819774174e6
1.0870217626728073e6
1.0948237410504667e6
1.1021502689516915e6
1.108966990976418e6
1.1153362206783681e6
1.121142752120993e6
1.1265672872606437e6
1.1312567366392233e6
1.1357971988638781e6
1.139079258349685e6
1.1430702783151586e6
1.144058577757498e6
1.1489894514252841e6
1.144413009334169e6
1.15684420705236e6
99999.99578555787
100000.00712974662
99999.98849484237
100000.01912662541
99999.96885816912
100000.05131156571
99999.91623752344
100000.1373013544
99999.77591056861
100000.36615915969
99999.40267787038
100000.97565753265
99998.40319451992
100002.62851212408
99995.62269024394
100007.43742335387
99986.89382247078
100024.27714572403
99951.36874465177
100104.78182125269
99750.67394981941
100622.56706346445
98329.91886919939
104641.180630825
87472.07327943781
374354.4273283445
841180.7322879327
1.0305243645796372e6
1.0339736086089213e6
1.0455005185996651e6
1.0548194736551435e6
1.063874809771102e6
1.072282300791665e6
1.0801666915970305e6
1.087504729599056e6
1.0943317637289572e6
1.100611841735552e6
1.1064007354752829e6
1.1115783064652516e6
1.1163110691241242e6
1.1202346699998272e6
1.1239116548708237e6
1.1262080904747813e6
1.1291036275618512e6
1.1287992299856325e6
1.1326185227555442e6
1.1264024689355942e6
1.1394306575745705e6
99999.99585781302
100000.00692042179
99999.98884567642
100000.01838666057
99999.97024283379
100000.04860147732
99999.92140080496
100000.12741245021
99999.794697111
100000.33059785988
99999.469511192
100000.85127275171
99998.63115899931
100002.22122794291
99996.31866989353
100006.3470645807
99988.28100763753
100023.65364022956
99946.68059207893
100130.92276804881
99651.45031945356
100960.69027202555
97286.7161854878
108062.55343328432
78636.32061285268
317974.76482167386
788294.3845175987
1.0193866337215637e6
1.029423130894292e6
1.0395676504974023e6
1.048684026507741e6
1.0572910755973994e6
1.065253172642447e6
1.072644178487626e6
1.0794502679030132e6
1.0857015062251203e6
1.0913620923698207e6
1.0964859182460133e6
1.100958629077665e6
1.1049510623400433e6
1.108123992107826e6
1.1110592265631384e6
1.1126858676060548e6
1.1150180195071083e6
1.1143207994661254e6
1.1180066787240023e6
1.111444169797026e6
1.1255814928692863e6
99999.99599466792
100000.00665530511
99999.98925814824
100000.01765682735
99999.9714407171
100000.04654248571
99999.92485762635
100000.12150193048
99999.80475732335
100000.31331985015
99999.49921836262
100000.80006283527
99998.7190430032
100002.07269374562
99996.56072186783
100005.98750987176
99988.69988154384
100023.62999114291
99944.56295263184
100141.66145300264
99612.71466606153
101094.58549255418
96888.45106991575
109393.57780627967
75295.35527048363
261848.81793399117
725758.2522660919
1.002789276332807e6
1.0248518526782122e6
1.0331328813732235e6
1.0420576941042768e6
1.0501632373319247e6
1.0576225773076387e6
1.0644508091818301e6
1.0706405523076355e6
1.0762109873499137e6
1.0811166921232569e6
1.085394380593721e6
1.0889075124884404e6
1.0917898532379882e6
1.0936484071394342e6
1.094991278501783e6
1.0946130722183983e6
1.0944849447119255e6
1.0905124927139485e6
1.09083134415741e6
1.0792681792932663e6
1.0933101277867167e6
99999.99617937313
100000.00636652877
99999.9896812303
100000.01702769024
99999.97229506575
100000.04541932643
99999.92608294843
100000.12057232302
99999.80413470682
100000.31823776891
99999.48384934613
100000.83837961851
99998.63299917769
100002.2530041559
99996.20410750614
100006.65383824808
99987.55660700313
100025.35561385281
99942.85603163262
100140.53995041065
99629.0891364634
101025.54780296095
97139.18822833471
108540.36747705852
77448.4493252078
208330.93345827205
653653.5989103221
978712.347629408
1.0201436723155748e6
1.0262787063835937e6
1.0349775723040059e6
1.0425357931064164e6
1.0494360600158637e6
1.0556374446747138e6
1.0611358140109885e6
1.0659387486391515e6
1.0699918627067965e6
1.073319045901509e6
1.0757765423857109e6
1.077488465164337e6
1.0780803086281342e6
1.0780742334113123e6
1.07638590077816e6
1.0749883067931703e6
1.070220517698377e6
1.069646220583928e6
1.0580790217923508e6
1.0713635547745698e6
99999.99643334058
100000.0059937751
99999.9902259376
100000.01626333465
99999.97326660635
100000.04432062544
99999.9268442181
100000.1212236158
99999.79930847419
100000.33313143463
99999.44622618188
100000.92413158921
99998.44949472469
100002.6260697337
99995.4835698252
100007.96014886974
99985.42678879038
100028.13229182902
99941.79734052466
100129.83636193123
99688.19550143256
100798.45319760333
97889.17299058987
106014.1113695438
84097.5639056692
160085.89474114336
572896.8536398675
944815.8718565339
1.0148379408298417e6
1.0191250193442602e6
1.0274746967246181e6
1.0344491390227367e6
1.0407323610113531e6
1.046241910017945e6
1.0509680156040362e6
1.0549002591967233e6
1.0579626018088828e6
1.0601452243241307e6
1.0612554990514508e6
1.0613385674260294e6
1.0598886535823436e6
1.0572212878277863e6
1.051857297539104e6
1.045341459469604e6
1.0326808873129694e6
1.0220695935906674e6
992724.2678479535
999211.8114851099
99999.99679721272
100000.00542651625
99999.99109296009
100000.01494200066
99999.9751784983
100000.04161292977
99999.9303367732
100000.1172277426
99999.8023543541
100000.33471956337
99999.43099521803
100000.9723124391
99998.32895805147
100002.89292821118
99994.94575241763
100008.93630453432
99983.94326884841
100029.47484273386
99944.28403082547
100109.28657328588
99775.31794615883
100487.35081131628
98886.20863045401
102745.59493273172
93217.05373815144
120184.43829546304
485528.1433545784
898531.6631914465
1.0078555578878213e6
1.0118133157459813e6
1.0195743845508794e6
1.0259476695675534e6
1.0315633931505035e6
1.0363273583572046e6
1.0402159610407273e6
1.0431993767954796e6
1.0451789378314245e6
1.0461122685299036e6
1.0457716328295699e6
1.0441477976267168e6
1.040709016964647e6
1.0356934998293325e6
1.0277682903472956e6
1.0182835799874021e6
1.003534061657875e6
988682.2124210686
960556.9246600776
927517.0199164854
99999.99730045168
100000.00457559698
99999.99244786508
100000.0127046474
99999.97875042018
100000.03583478453
99999.93948630366
100000.10275675339
99999.82482299357
100000.30023656678
99999.48281273391
100000.895879098
99998.43975575776
100002.7315082268
99995.19666089027
100008.47189698796
99985.05106434008
100026.26044491709
99954.4184611721
100076.85113834808
99877.47780461215
100168.4355994401
99852.28429922434
99761.12758576429
101976.69426404474
91878.94345810013
395064.43852431135
837404.3916814983
997196.6758631853
1.00445009122253e6
1.0112912810606002e6
1.0170711017101655e6
1.0219818488678717e6
1.0259579087483211e6
1.0289539094496081e6
1.0309173698161456e6
1.0317182607458073e6
1.0312664511951576e6
1.0292655899721392e6
1.0255874078634828e6
1.0195168159807837e6
1.0109005654181567e6
997749.1229231809
979815.0231979511
950379.937521255
907569.2290616997
822174.7938608197
670912.6945673858
99999.99793362425
100000.00344104883
99999.9943011545
100000.00949803875
99999.98413277302
100000.02660907966
99999.95517420217
100000.07584301231
99999.87099543506
100000.22057018719
99999.62078038232
100000.65537133133
99998.86226660047
100001.98080894015
99996.55181434168
100005.96876032389
99989.82599559936
100016.74635595697
99974.42456953198
100032.0743616523
99984.01413782724
99899.51182012327
100563.18995145443
97822.59908981319
107595.85272507416
77393.31609200175
306467.5899083593
759957.1207343809
979877.1820694947
997052.2565714743
1.0026614957164283e6
1.007869933688162e6
1.0120550391365e6
1.0152164668339109e6
1.017285423558172e6
1.0181869062596315e6
1.0177599647363343e6
1.0158645689493873e6
1.0121441702935158e6
1.0063617501588191e6
997665.0944729671
985636.5450542945
967994.5245591532
943810.1986916038
906140.1361930973
851597.4042645129
756583.6595117168
601049.1796277897
99999.99863761314
100000.00214085318
99999.99645564595
100000.00568527526
99999.99068574933
100000.01509238461
99999.97532662195
100000.0402297971
99999.93411875618
100000.10792346964
99999.8228433641
100000.2906614141
99999.52439298609
100000.77136554683
99998.77417371288
100001.86092583786
99997.46177521018
100002.47848289777
100001.20669262389
99981.65849113508
100079.14520788769
99721.17808088077
100897.65493737215
97233.14548610435
108634.04379709622
76184.98400606393
225304.02350790828
666667.1274979471
952223.8245194539
989463.8132945827
993799.4623465857
998424.4592921587
1.0018708161874e6
1.0042014675955517e6
1.0053265617823785e6
1.0051508156476002e6
1.0034816761108671e6
1.000139768619474e6
994712.306884466
986881.3139080261
975699.09231558
960600.5400133441
939198.2527578493
910431.462901919
867744.9116019901
808892.4001409181
714928.4940823466
582338.3597238818
99999.99931670995
100000.0008818245
99999.99855575491
100000.00195069285
99999.99715097918
100000.00365756724
99999.99549106318
100000.00432704757
99999.99827541271
99999.99251216897
100000.03151872999
99999.91126799864
100000.21734551308
99999.50094349119
100001.10798166967
99997.5765422391
100005.28715961966
99988.36638962026
100026.01382801328
99940.31893090332
100140.73758717687
99656.32441598503
100864.9028786202
97770.22794819891
106076.59376496033
84407.20605673135
156988.52959875306
560212.7599463639
910047.70840753
980977.0292086647
984889.8304190664
988832.299658986
991527.9855889748
993020.7220071276
993203.9052200762
991962.7834335011
989080.229757903
984345.9444329613
977310.8299081917
967611.6967840024
954259.152387032
936663.0843310736
912469.2225834732
880861.8568476596
835832.0329276066
777074.9987627057
688796.650208141
578307.8581900304
99999.99987075948
99999.99988313469
100000.0002213799
99999.99903178787
100000.00215978004
99999.99490730702
100000.0107390728
99999.977528623
100000.04551532738
99999.90874664354
100000.1806739001
99999.64450675542
100000.69585683588
99998.64151284237
100002.6483769299
99994.83674432605
100010.07579964712
99980.29811745262
100038.60785691836
99924.12012893909
100149.28670014178
99705.89940673002
100576.38614799053
98881.8991903936
102149.27780665681
96231.66831981631
107167.36771321385
445853.23872122105
848693.7199815491
969491.9982616331
976034.6536722761
979153.0340817671
981104.6589104818
981771.1943879152
981036.9884142454
978769.2051034183
974736.8294603556
968709.4853597502
960222.0971076422
948900.1885288977
933761.1970015567
914270.1228218223
888209.3998377599
855126.3748055871
809710.972959009
753124.6310930392
672599.8687008006
579155.7130836609
100000.00023140652
99999.99928939235
100000.00120135312
99999.99741011237
100000.00482492386
99999.99051466731
100000.01792802708
99999.96577921043
100000.06456261431
99999.8780957148
100000.22931529189
99999.56880588354
100000.80979433208
99998.47991558765
100002.8503778081
99994.66452255263
100009.95030766609
99981.57191797467
100033.67741012418
99939.9236625479
100102.17199983214
99842.25453716757
100185.77323829092
99992.05064879684
98936.59244652865
105439.88236053007
80401.61804166934
332140.3428937216
764540.7252629567
950944.1402399249
967085.1611097626
969400.1956348374
970653.8493509839
970535.0458898044
968931.5203050041