# vtk DataFile Version 2.0
JuliaCFD
ASCII
DATASET UNSTRUCTURED_GRID

POINTS 32898 float
0.0 0.0 -0.05
0.0125 0.0 -0.05
0.025 0.0 -0.05
0.0375 0.0 -0.05
0.05 0.0 -0.05
0.0625 0.0 -0.05
0.075 0.0 -0.05
0.0875 0.0 -0.05
0.1 0.0 -0.05
0.1125 0.0 -0.05
0.125 0.0 -0.05
0.1375 0.0 -0.05
0.15 0.0 -0.05
0.1625 0.0 -0.05
0.175 0.0 -0.05
0.1875 0.0 -0.05
0.2 0.0 -0.05
0.2125 0.0 -0.05
0.225 0.0 -0.05
0.2375 0.0 -0.05
0.25 0.0 -0.05
0.2625 0.0 -0.05
0.275 0.0 -0.05
0.2875 0.0 -0.05
0.3 0.0 -0.05
0.3125 0.0 -0.05
0.325 0.0 -0.05
0.3375 0.0 -0.05
0.35 0.0 -0.05
0.3625 0.0 -0.05
0.375 0.0 -0.05
0.3875 0.0 -0.05
0.4 0.0 -0.05
0.4125 0.0 -0.05
0.425 0.0 -0.05
0.4375 0.0 -0.05
0.45 0.0 -0.05
0.4625 0.0 -0.05
0.475 0.0 -0.05
0.4875 0.0 -0.05
0.5 0.0 -0.05
0.5125 0.0 -0.05
0.525 0.0 -0.05
0.5375 0.0 -0.05
0.55 0.0 -0.05
0.5625 0.0 -0.05
0.575 0.0 -0.05
0.5875 0.0 -0.05
0.6 0.0 -0.05
0.0 0.0125 -0.05
0.0125 0.0125 -0.05
0.025 0.0125 -0.05
0.0375 0.0125 -0.05
0.05 0.0125 -0.05
0.0625 0.0125 -0.05
0.075 0.0125 -0.05
0.0875 0.0125 -0.05
0.1 0.0125 -0.05
0.1125 0.0125 -0.05
0.125 0.0125 -0.05
0.1375 0.0125 -0.05
0.15 0.0125 -0.05
0.1625 0.0125 -0.05
0.175 0.0125 -0.05
0.1875 0.0125 -0.05
0.2 0.0125 -0.05
0.2125 0.0125 -0.05
0.225 0.0125 -0.05
0.2375 0.0125 -0.05
0.25 0.0125 -0.05
0.2625 0.0125 -0.05
0.275 0.0125 -0.05
0.2875 0.0125 -0.05
0.3 0.0125 -0.05
0.3125 0.0125 -0.05
0.325 0.0125 -0.05
0.3375 0.0125 -0.05
0.35 0.0125 -0.05
0.3625 0.0125 -0.05
0.375 0.0125 -0.05
0.3875 0.0125 -0.05
0.4 0.0125 -0.05
0.4125 0.0125 -0.05
0.425 0.0125 -0.05
0.4375 0.0125 -0.05
0.45 0.0125 -0.05
0.4625 0.0125 -0.05
0.475 0.0125 -0.05
0.4875 0.0125 -0.05
0.5 0.0125 -0.05
0.5125 0.0125 -0.05
0.525 0.0125 -0.05
0.5375 0.0125 -0.05
0.55 0.0125 -0.05
0.5625 0.0125 -0.05
0.575 0.0125 -0.05
0.5875 0.0125 -0.05
0.6 0.0125 -0.05
0.0 0.025 -0.05
0.0125 0.025 -0.05
0.025 0.025 -0.05
0.0375 0.025 -0.05
0.05 0.025 -0.05
0.0625 0.025 -0.05
0.075 0.025 -0.05
0.0875 0.025 -0.05
0.1 0.025 -0.05
0.1125 0.025 -0.05
0.125 0.025 -0.05
0.1375 0.025 -0.05
0.15 0.025 -0.05
0.1625 0.025 -0.05
0.175 0.025 -0.05
0.1875 0.025 -0.05
0.2 0.025 -0.05
0.2125 0.025 -0.05
0.225 0.025 -0.05
0.2375 0.025 -0.05
0.25 0.025 -0.05
0.2625 0.025 -0.05
0.275 0.025 -0.05
0.2875 0.025 -0.05
0.3 0.025 -0.05
0.3125 0.025 -0.05
0.325 0.025 -0.05
0.3375 0.025 -0.05
0.35 0.025 -0.05
0.3625 0.025 -0.05
0.375 0.025 -0.05
0.3875 0.025 -0.05
0.4 0.025 -0.05
0.4125 0.025 -0.05
0.425 0.025 -0.05
0.4375 0.025 -0.05
0.45 0.025 -0.05
0.4625 0.025 -0.05
0.475 0.025 -0.05
0.4875 0.025 -0.05
0.5 0.025 -0.05
0.5125 0.025 -0.05
0.525 0.025 -0.05
0.5375 0.025 -0.05
0.55 0.025 -0.05
0.5625 0.025 -0.05
0.575 0.025 -0.05
0.5875 0.025 -0.05
0.6 0.025 -0.05
0.0 0.0375 -0.05
0.0125 0.0375 -0.05
0.025 0.0375 -0.05
0.0375 0.0375 -0.05
0.05 0.0375 -0.05
0.0625 0.0375 -0.05
0.075 0.0375 -0.05
0.0875 0.0375 -0.05
0.1 0.0375 -0.05
0.1125 0.0375 -0.05
0.125 0.0375 -0.05
0.1375 0.0375 -0.05
0.15 0.0375 -0.05
0.1625 0.0375 -0.05
0.175 0.0375 -0.05
0.1875 0.0375 -0.05
0.2 0.0375 -0.05
0.2125 0.0375 -0.05
0.225 0.0375 -0.05
0.2375 0.0375 -0.05
0.25 0.0375 -0.05
0.2625 0.0375 -0.05
0.275 0.0375 -0.05
0.2875 0.0375 -0.05
0.3 0.0375 -0.05
0.3125 0.0375 -0.05
0.325 0.0375 -0.05
0.3375 0.0375 -0.05
0.35 0.0375 -0.05
0.3625 0.0375 -0.05
0.375 0.0375 -0.05
0.3875 0.0375 -0.05
0.4 0.0375 -0.05
0.4125 0.0375 -0.05
0.425 0.0375 -0.05
0.4375 0.0375 -0.05
0.45 0.0375 -0.05
0.4625 0.0375 -0.05
0.475 0.0375 -0.05
0.4875 0.0375 -0.05
0.5 0.0375 -0.05
0.5125 0.0375 -0.05
0.525 0.0375 -0.05
0.5375 0.0375 -0.05
0.55 0.0375 -0.05
0.5625 0.0375 -0.05
0.575 0.0375 -0.05
0.5875 0.0375 -0.05
0.6 0.0375 -0.05
0.0 0.05 -0.05
0.0125 0.05 -0.05
0.025 0.05 -0.05
0.0375 0.05 -0.05
0.05 0.05 -0.05
0.0625 0.05 -0.05
0.075 0.05 -0.05
0.0875 0.05 -0.05
0.1 0.05 -0.05
0.1125 0.05 -0.05
0.125 0.05 -0.05
0.1375 0.05 -0.05
0.15 0.05 -0.05
0.1625 0.05 -0.05
0.175 0.05 -0.05
0.1875 0.05 -0.05
0.2 0.05 -0.05
0.2125 0.05 -0.05
0.225 0.05 -0.05
0.2375 0.05 -0.05
0.25 0.05 -0.05
0.2625 0.05 -0.05
0.275 0.05 -0.05
0.2875 0.05 -0.05
0.3 0.05 -0.05
0.3125 0.05 -0.05
0.325 0.05 -0.05
0.3375 0.05 -0.05
0.35 0.05 -0.05
0.3625 0.05 -0.05
0.375 0.05 -0.05
0.3875 0.05 -0.05
0.4 0.05 -0.05
0.4125 0.05 -0.05
0.425 0.05 -0.05
0.4375 0.05 -0.05
0.45 0.05 -0.05
0.4625 0.05 -0.05
0.475 0.05 -0.05
0.4875 0.05 -0.05
0.5 0.05 -0.05
0.5125 0.05 -0.05
0.525 0.05 -0.05
0.5375 0.05 -0.05
0.55 0.05 -0.05
0.5625 0.05 -0.05
0.575 0.05 -0.05
0.5875 0.05 -0.05
0.6 0.05 -0.05
0.0 0.0625 -0.05
0.0125 0.0625 -0.05
0.025 0.0625 -0.05
0.0375 0.0625 -0.05
0.05 0.0625 -0.05
0.0625 0.0625 -0.05
0.075 0.0625 -0.05
0.0875 0.0625 -0.05
0.1 0.0625 -0.05
0.1125 0.0625 -0.05
0.125 0.0625 -0.05
0.1375 0.0625 -0.05
0.15 0.0625 -0.05
0.1625 0.0625 -0.05
0.175 0.0625 -0.05
0.1875 0.0625 -0.05
0.2 0.0625 -0.05
0.2125 0.0625 -0.05
0.225 0.0625 -0.05
0.2375 0.0625 -0.05
0.25 0.0625 -0.05
0.2625 0.0625 -0.05
0.275 0.0625 -0.05
0.2875 0.0625 -0.05
0.3 0.0625 -0.05
0.3125 0.0625 -0.05
0.325 0.0625 -0.05
0.3375 0.0625 -0.05
0.35 0.0625 -0.05
0.3625 0.0625 -0.05
0.375 0.0625 -0.05
0.3875 0.0625 -0.05
0.4 0.0625 -0.05
0.4125 0.0625 -0.05
0.425 0.0625 -0.05
0.4375 0.0625 -0.05
0.45 0.0625 -0.05
0.4625 0.0625 -0.05
0.475 0.0625 -0.05
0.4875 0.0625 -0.05
0.5 0.0625 -0.05
0.5125 0.0625 -0.05
0.525 0.0625 -0.05
0.5375 0.0625 -0.05
0.55 0.0625 -0.05
0.5625 0.0625 -0.05
0.575 0.0625 -0.05
0.5875 0.0625 -0.05
0.6 0.0625 -0.05
0.0 0.075 -0.05
0.0125 0.075 -0.05
0.025 0.075 -0.05
0.0375 0.075 -0.05
0.05 0.075 -0.05
0.0625 0.075 -0.05
0.075 0.075 -0.05
0.0875 0.075 -0.05
0.1 0.075 -0.05
0.1125 0.075 -0.05
0.125 0.075 -0.05
0.1375 0.075 -0.05
0.15 0.075 -0.05
0.1625 0.075 -0.05
0.175 0.075 -0.05
0.1875 0.075 -0.05
0.2 0.075 -0.05
0.2125 0.075 -0.05
0.225 0.075 -0.05
0.2375 0.075 -0.05
0.25 0.075 -0.05
0.2625 0.075 -0.05
0.275 0.075 -0.05
0.2875 0.075 -0.05
0.3 0.075 -0.05
0.3125 0.075 -0.05
0.325 0.075 -0.05
0.3375 0.075 -0.05
0.35 0.075 -0.05
0.3625 0.075 -0.05
0.375 0.075 -0.05
0.3875 0.075 -0.05
0.4 0.075 -0.05
0.4125 0.075 -0.05
0.425 0.075 -0.05
0.4375 0.075 -0.05
0.45 0.075 -0.05
0.4625 0.075 -0.05
0.475 0.075 -0.05
0.4875 0.075 -0.05
0.5 0.075 -0.05
0.5125 0.075 -0.05
0.525 0.075 -0.05
0.5375 0.075 -0.05
0.55 0.075 -0.05
0.5625 0.075 -0.05
0.575 0.075 -0.05
0.5875 0.075 -0.05
0.6 0.075 -0.05
0.0 0.0875 -0.05
0.0125 0.0875 -0.05
0.025 0.0875 -0.05
0.0375 0.0875 -0.05
0.05 0.0875 -0.05
0.0625 0.0875 -0.05
0.075 0.0875 -0.05
0.0875 0.0875 -0.05
0.1 0.0875 -0.05
0.1125 0.0875 -0.05
0.125 0.0875 -0.05
0.1375 0.0875 -0.05
0.15 0.0875 -0.05
0.1625 0.0875 -0.05
0.175 0.0875 -0.05
0.1875 0.0875 -0.05
0.2 0.0875 -0.05
0.2125 0.0875 -0.05
0.225 0.0875 -0.05
0.2375 0.0875 -0.05
0.25 0.0875 -0.05
0.2625 0.0875 -0.05
0.275 0.0875 -0.05
0.2875 0.0875 -0.05
0.3 0.0875 -0.05
0.3125 0.0875 -0.05
0.325 0.0875 -0.05
0.3375 0.0875 -0.05
0.35 0.0875 -0.05
0.3625 0.0875 -0.05
0.375 0.0875 -0.05
0.3875 0.0875 -0.05
0.4 0.0875 -0.05
0.4125 0.0875 -0.05
0.425 0.0875 -0.05
0.4375 0.0875 -0.05
0.45 0.0875 -0.05
0.4625 0.0875 -0.05
0.475 0.0875 -0.05
0.4875 0.0875 -0.05
0.5 0.0875 -0.05
0.5125 0.0875 -0.05
0.525 0.0875 -0.05
0.5375 0.0875 -0.05
0.55 0.0875 -0.05
0.5625 0.0875 -0.05
0.575 0.0875 -0.05
0.5875 0.0875 -0.05
0.6 0.0875 -0.05
0.0 0.1 -0.05
0.0125 0.1 -0.05
0.025 0.1 -0.05
0.0375 0.1 -0.05
0.05 0.1 -0.05
0.0625 0.1 -0.05
0.075 0.1 -0.05
0.0875 0.1 -0.05
0.1 0.1 -0.05
0.1125 0.1 -0.05
0.125 0.1 -0.05
0.1375 0.1 -0.05
0.15 0.1 -0.05
0.1625 0.1 -0.05
0.175 0.1 -0.05
0.1875 0.1 -0.05
0.2 0.1 -0.05
0.2125 0.1 -0.05
0.225 0.1 -0.05
0.2375 0.1 -0.05
0.25 0.1 -0.05
0.2625 0.1 -0.05
0.275 0.1 -0.05
0.2875 0.1 -0.05
0.3 0.1 -0.05
0.3125 0.1 -0.05
0.325 0.1 -0.05
0.3375 0.1 -0.05
0.35 0.1 -0.05
0.3625 0.1 -0.05
0.375 0.1 -0.05
0.3875 0.1 -0.05
0.4 0.1 -0.05
0.4125 0.1 -0.05
0.425 0.1 -0.05
0.4375 0.1 -0.05
0.45 0.1 -0.05
0.4625 0.1 -0.05
0.475 0.1 -0.05
0.4875 0.1 -0.05
0.5 0.1 -0.05
0.5125 0.1 -0.05
0.525 0.1 -0.05
0.5375 0.1 -0.05
0.55 0.1 -0.05
0.5625 0.1 -0.05
0.575 0.1 -0.05
0.5875 0.1 -0.05
0.6 0.1 -0.05
0.0 0.1125 -0.05
0.0125 0.1125 -0.05
0.025 0.1125 -0.05
0.0375 0.1125 -0.05
0.05 0.1125 -0.05
0.0625 0.1125 -0.05
0.075 0.1125 -0.05
0.0875 0.1125 -0.05
0.1 0.1125 -0.05
0.1125 0.1125 -0.05
0.125 0.1125 -0.05
0.1375 0.1125 -0.05
0.15 0.1125 -0.05
0.1625 0.1125 -0.05
0.175 0.1125 -0.05
0.1875 0.1125 -0.05
0.2 0.1125 -0.05
0.2125 0.1125 -0.05
0.225 0.1125 -0.05
0.2375 0.1125 -0.05
0.25 0.1125 -0.05
0.2625 0.1125 -0.05
0.275 0.1125 -0.05
0.2875 0.1125 -0.05
0.3 0.1125 -0.05
0.3125 0.1125 -0.05
0.325 0.1125 -0.05
0.3375 0.1125 -0.05
0.35 0.1125 -0.05
0.3625 0.1125 -0.05
0.375 0.1125 -0.05
0.3875 0.1125 -0.05
0.4 0.1125 -0.05
0.4125 0.1125 -0.05
0.425 0.1125 -0.05
0.4375 0.1125 -0.05
0.45 0.1125 -0.05
0.4625 0.1125 -0.05
0.475 0.1125 -0.05
0.4875 0.1125 -0.05
0.5 0.1125 -0.05
0.5125 0.1125 -0.05
0.525 0.1125 -0.05
0.5375 0.1125 -0.05
0.55 0.1125 -0.05
0.5625 0.1125 -0.05
0.575 0.1125 -0.05
0.5875 0.1125 -0.05
0.6 0.1125 -0.05
0.0 0.125 -0.05
0.0125 0.125 -0.05
0.025 0.125 -0.05
0.0375 0.125 -0.05
0.05 0.125 -0.05
0.0625 0.125 -0.05
0.075 0.125 -0.05
0.0875 0.125 -0.05
0.1 0.125 -0.05
0.1125 0.125 -0.05
0.125 0.125 -0.05
0.1375 0.125 -0.05
0.15 0.125 -0.05
0.1625 0.125 -0.05
0.175 0.125 -0.05
0.1875 0.125 -0.05
0.2 0.125 -0.05
0.2125 0.125 -0.05
0.225 0.125 -0.05
0.2375 0.125 -0.05
0.25 0.125 -0.05
0.2625 0.125 -0.05
0.275 0.125 -0.05
0.2875 0.125 -0.05
0.3 0.125 -0.05
0.3125 0.125 -0.05
0.325 0.125 -0.05
0.3375 0.125 -0.05
0.35 0.125 -0.05
0.3625 0.125 -0.05
0.375 0.125 -0.05
0.3875 0.125 -0.05
0.4 0.125 -0.05
0.4125 0.125 -0.05
0.425 0.125 -0.05
0.4375 0.125 -0.05
0.45 0.125 -0.05
0.4625 0.125 -0.05
0.475 0.125 -0.05
0.4875 0.125 -0.05
0.5 0.125 -0.05
0.5125 0.125 -0.05
0.525 0.125 -0.05
0.5375 0.125 -0.05
0.55 0.125 -0.05
0.5625 0.125 -0.05
0.575 0.125 -0.05
0.5875 0.125 -0.05
0.6 0.125 -0.05
0.0 0.1375 -0.05
0.0125 0.1375 -0.05
0.025 0.1375 -0.05
0.0375 0.1375 -0.05
0.05 0.1375 -0.05
0.0625 0.1375 -0.05
0.075 0.1375 -0.05
0.0875 0.1375 -0.05
[...]
CELL_DATA 16128
SCALARS P float 1
LOOKUP_TABLE default
99999.99478444325
100000.00931825083
99999.98449196547
100000.0267826796
99999.95494821944
100000.07662127705
99999.87102354161
100000.21756381862
99999.6347275359
100000.61282384004
99998.97468370441
100001.71289949171
99997.14411877035
100004.75385760402
99992.09950663766
100013.10701657717
99978.29297814146
100035.82867629647
99941.15861992618
100095.33850357057
99849.51326291301
100221.12602884088
99729.93741614898
100103.44362902932
100966.74515024091
94468.88178208243
122944.02982184003
504410.8632205396
970825.546836677
1.0945286366739639e6
1.0848755141504623e6
1.1028886344768812e6
1.1126889549631113e6
1.1241380638869253e6
1.1343932486026618e6
1.1442951211596108e6
1.1535450683444354e6
1.1622827536107015e6
1.170337114827816e6
1.177920656258872e6
1.1846024460892125e6
1.1910438347914922e6
1.1959918549494524e6
1.2015224723427e6
1.2038874227006512e6
1.2095001164568798e6
1.207010922041416e6
1.216087715499045e6
99999.99481887111
100000.00923783187
99999.9846030694
100000.02657020079
99999.95529158042
100000.07599679333
99999.87212371115
100000.21553972502
99999.63847576246
100000.60576772247
99998.98805684785
100001.68750940137
99997.19213955886
100004.66404242742
99992.26453629398
100012.81208988195
99978.79882019974
100035.01620186522
99942.31659338925
100094.09799660559
99849.5108208511
100226.72488321234
99705.82717841673
100180.25391300098
100746.53254673631
95035.3555330069
121345.6680612058
500729.6146829006
971026.3805429131
1.09932832325515e6
1.0902515313984693e6
1.1088031697769458e6
1.1188365088917925e6
1.1304150879266798e6
1.1407621275597417e6
1.1507415092546742e6
1.1600711607336893e6
1.168891478232608e6
1.177030339360444e6
1.184697516247238e6
1.1914567756003803e6
1.197967764066221e6
1.2029663491208605e6
1.2085355012471916e6
1.2108964290753037e6
1.2165176317847646e6
1.213922189728388e6
1.2230951905561895e6
99999.99511804966
100000.00870178867
99999.98548719141
100000.02504238003
99999.95784950345
100000.0716537201
99999.87940473572
100000.20331320223
99999.65886078928
100000.57190136424
99999.0439293188
100001.59599293959
99997.34057925348
100004.42622849112
99992.63914248963
100012.23624428685
99979.65038467545
100033.84145806523
99943.70329757042
100093.16185648646
99847.56520796468
100239.10165598334
99659.96885486669
100326.4636980182
100298.40919698607
96352.9273102344
116882.40078475473
487647.4012903181
960379.6001497277
1.0956494111417483e6
1.085999191159197e6
1.1041262796863292e6
1.113974088355483e6
1.1253297271144327e6
1.1355103692902604e6
1.1453161460476741e6
1.154478371109291e6
1.1631285008460323e6
1.171100886528357e6
1.178604428556662e6
1.1852123098190345e6
1.1915800503747542e6
1.1964609836884965e6
1.2019255523914362e6
1.2042181011553423e6
1.2098034615139875e6
1.2071398988595195e6
1.2164786292415864e6
99999.9955389638
100000.00794597233
99999.98673089119
100000.02289508616
99999.96144062227
100000.06556269778
99999.88961164886
100000.18617457114
99999.68746389126
100000.52427983611
99999.12281532736
100001.46593943678
99997.55365492876
100004.07981331371
99993.19659614592
100011.35264005637
99981.01787459927
100031.814701521
99946.44813864068
100090.24034256484
99847.8922988765
100251.20731665302
99603.19188561082
100526.4638682955
99656.06198084995
98319.10575607978
110543.0295171568
468963.5364961092
947622.8708660144
1.0952330311490046e6
1.0856316972753215e6
1.1037712699724224e6
1.1138046599001978e6
1.1251728013673476e6
1.135389710517211e6
1.1451978020725665e6
1.1543657423898107e6
1.163020572350308e6
1.1710062455237536e6
1.1785299261820044e6
1.1851708578449225e6
1.1915772008301741e6
1.1965091358997494e6
1.2020246647308078e6
1.204361447269516e6
1.2100155860473292e6
1.2072858257099185e6
1.2168794976849034e6
99999.99605161788
100000.00702699188
99999.9882432374
100000.02028659066
99999.96580386806
100000.05816155896
99999.9020258369
100000.16529659179
99999.72240009652
100000.46588387279
99999.22008863551
100001.30433633632
99997.82113336682
100003.6390504349
99993.91841922115
100010.18191111584
99982.8863513614
100028.9220939889
99950.65668267311
100084.9737170337
99851.55342219485
100260.13000196412
99543.55589691216
100759.09342953638
98878.79048907068
100817.36674931906
102783.55136159516
443594.782533625
928437.997564611
1.0924521307498203e6
1.0828734935808782e6
1.1004248053733017e6
1.1103936553661148e6
1.1214917067003115e6
1.1315241476604426e6
1.1411212480716652e6
1.1500903431847806e6
1.1585440473866323e6
1.166335341131265e6
1.173667597297234e6
1.1801297933661756e6
1.186361950161364e6
1.1911413050915392e6
1.196512478537374e6
1.1987245240501498e6
1.204311430938883e6
1.201404214921167e6
1.2112657371274196e6
99999.99661992266
100000.00601252505
99999.98991440257
100000.01740924477
99999.9706176724
100000.0499982604
99999.91572811404
100000.14222424026
99999.76109364175
100000.40099612653
99999.32868167195
100001.12278872152
99998.12414483113
100003.13431149063
99994.75664116809
100008.79765076055
99985.14931819336
100025.29951452563
99956.21417634725
100077.25655552986
99859.54153065264
100262.06875882631
99493.28878331932
100989.12242095634
98066.7970154061
103593.81945564166
94482.50710851343
412521.6057170601
903662.8626363438
1.0892121588990681e6
1.0806734152022058e6
1.0975344331131931e6
1.1076412929877508e6
1.1185543505297105e6
1.1284947141532141e6
1.13795579124636e6
1.1467988992875097e6
1.155124619029283e6
1.1627995384744932e6
1.1700255488387619e6
1.1764035591150967e6
1.1825659762917687e6
1.1873051737810075e6
1.192651795815117e6
1.1948491822917724e6
1.2004843101764016e6
1.1974481020859554e6
1.2076914932203323e6
99999.99720805156
100000.00496930783
99999.99163484512
100000.0144557934
99999.97555538377
100000.0416370682
99999.92975226477
100000.11861917647
99999.80068859828
100000.33452714223
99999.44014252779
100000.93582437199
99998.43773661558
100002.60824677565
99995.63892437167
100007.32060981727
99987.61109733258
100021.24665427693
99962.71661877411
100067.46419977672
99872.14050849638
100253.97679201578
99464.83797261481
101175.62432448553
97341.6926616326
106293.34446217192
86574.92195752729
376191.8852023455
871944.2368957503
1.083944613069112e6
1.0778494589801293e6
1.0934669109447848e6
1.103663189756213e6
1.1142352713732577e6
1.1239600909332442e6
1.1331568553053476e6
1.1417447127734653e6
1.1498069810103157e6
1.1572212353473515e6
1.1641846346712725e6
1.1703081679243762e6
1.17621473356636e6
1.1807131718872571e6
1.185826483095062e6
1.1877970287052488e6
1.193304975117645e6
1.1899610223831714e6
1.2006063216468806e6
99999.99778490962
100000.00395421522
99999.99331011676
100000.01159204326
99999.98033337652
100000.03357249597
99999.9432400496
100000.09598508819
99999.83854664993
100000.27113828219
99999.54621401006
100000.75814263563
99998.73570466822
100002.10760981205
99996.48209433914
100005.89754900556
99990.01662837475
100017.19272902796
99969.48268624471
100056.53882444093
99888.50507451863
100234.83259623771
99467.52765408324
101279.04532087925
96833.86171640006
108454.1490796318
80143.9740020072
335613.0107592284
832724.4869513816
1.076234250136288e6
1.0750627800514924e6
1.0889287859077745e6
1.0993250953264209e6
1.1095385163531546e6
1.1190476968076117e6
1.1279727039362574e6
1.1362967667985703e6
1.144088783454029e6
1.151241136825322e6
1.1579514923732963e6
1.163847351975989e6
1.1695489679925533e6
1.1738868945924046e6
1.1788808797732873e6
1.1807568529658483e6
1.1862884388720798e6
1.1827363249474482e6
1.19394734911961e6
99999.99832738496
100000.00300753427
99999.9948727761
100000.00893396701
99999.98475346628
100000.02614823708
99999.95559268317
100000.07537766176
99999.87278806805
100000.21421135042
99999.64074294416
100000.60103339849
99998.99714699405
100001.67129184837
99997.21354145899
100004.66379818835
99992.11545641936
100013.5930835779
99975.71222096373
100045.78735144908
99906.82180216114
100205.89069063895
99505.6286711653
101268.79804198431
96661.9031949158
109572.93406182021
76252.81630552137
292029.473001496
785187.8309203462
1.0647858596753608e6
1.0721555405620348e6
1.083593095761837e6
1.0942175272548727e6
1.1039801771418552e6
1.1131887102944464e6
1.1217487887139064e6
1.129703967830218e6
1.1371061302781214e6
1.1438555053306094e6
1.1501430759278676e6
1.1556020581401654e6
1.1608414833571278e6
1.164700699620009e6
1.1692054749620603e6
1.1705562423513508e6
1.175718975149014e6
1.1715260842070663e6
1.1832885613886197e6
99999.99882142803
100000.0021506398
99999.99628741705
100000.00653755336
99999.98872488405
100000.01951225793
99999.96656626386
100000.05721103087
99999.90269561244
100000.1650400697
99999.7213302556
100000.46911796888
99999.21294646247
100001.31771526954
99997.7955645991
100003.6970612651
99993.74738750055
100010.77413666068
99980.7503864117
100036.46077333268
99924.8432795859
100170.44262219318
99576.40235795635
101135.07807379341
96885.22542985922
109331.1924440749
75714.73116661355
247041.7253361163
728857.2376048795
1.048215106412543e6
1.0692310809316763e6
1.0776164923051165e6
1.0885064962954582e6
1.0977778063168502e6
1.1066356536359394e6
1.1147803475752433e6
1.1223104251012919e6
1.1292679777232911e6
1.1355664246181548e6
1.1414009645061905e6
1.1464267147152768e6
1.1512601637953988e6
1.1547759208566754e6
1.159013032863755e6
1.160163743600387e6
1.1653193138049382e6
1.1608273276115686e6
1.1734430590279405e6
99999.99926062806
100000.00138916512
99999.99754624447
100000.0044065142
99999.99225343564
100000.01363074698
99999.97625754235
100000.0412549077
99999.92876585208
100000.12261715677
99999.78991161563
100000.35883126616
99999.38931828608
100001.03669542231
99998.24317660512
100002.97932543847
99994.92177578123
100008.77433054843
99984.39912696168
100029.19566547274
99940.82918244747
100132.64822452737
99670.73090444678
100894.22373393539
97485.26910186461
107728.84922898859
78815.79427400448
202566.8354568196
663615.6386467357
1.0247211696879293e6
1.0661063362585695e6
1.0710117526643656e6
1.082108340603059e6
1.0908409418570637e6
1.0992600880232265e6
1.1068968479715288e6
1.1138842246638224e6
1.1202513945123467e6
1.1259089346656227e6
1.1310376452386095e6
1.1352819701760018e6
1.139233688115308e6
1.1417453337945507e6
1.144862848531127e6
1.1447008270222712e6
1.1487348864927029e6
1.1425962884676692e6
1.1558307343869815e6
99999.9996427608
100000.00072097011
99999.99865591167
100000.00251763838
99999.99539701975
100000.00836890339
99999.98496355907
100000.02688124
99999.95229655177
100000.08432725367
99999.8516764318
100000.2600685245
99999.54564714238
100000.79175124939
99998.62362123805
100002.39015866975
99995.84556867357
100007.26103546459
99987.12670574218
100023.52362492307
99954.56761115926
100095.60384833651
99775.9953757095
100587.14187265708
98348.53557992174
105108.38441650673
85134.07881539849
160881.00482478784
589984.304916222
992245.9413537395
1.062375824212435e6
1.0639405453398647e6
1.0750546291820721e6
1.0832352980823782e6
1.0911337813189537e6
1.098189365026808e6
1.1045485845357252e6
1.1102390490446032e6
1.1151778330353654e6
1.1195510635636006e6
1.1230303792493546e6
1.126227628192685e6
1.1280620849025245e6
1.1306068819046465e6
1.130065326825379e6
1.1339730464924506e6
1.1275049201125505e6
1.1418830897460482e6
99999.99996569351
100000.00014591418
99999.99962018001
100000.00085511408
99999.9982005972
100000.00361437452
99999.99294688593
100000.01350271712
99999.97456078192
100000.04746790376
99999.91225083325
100000.1612775421
99999.705305983
100000.53620939906
99999.02869605133
100001.75233730338
99996.85273072514
100005.62857931771
99989.96776880336
100017.88492970607
99967.7755628304
100059.87264203775
99880.35148719429
100268.56878885934
99300.25683873524
102100.76600639847
93379.447904954
124667.62834537207
509350.7719640136
948484.3216200941
1.057129185926557e6
1.0565988319613556e6
1.067331927703131e6
1.0749655736363896e6
1.0822395385596228e6
1.0886114294217895e6
1.0942030328905273e6
1.099031556178989e6
1.1029900538497719e6
1.10622827269294e6
1.1083634863476073e6
1.1099331934954717e6
1.109719281866348e6
1.109746755089695e6
1.1058753114884626e6
1.106375981611943e6
1.094852434575949e6
1.1091729329356018e6
100000.00022449878
99999.99967307152
100000.00042607708
99999.99943917737
100000.00063867666
99999.99939353729
100000.0002037423
100000.00103782838
99999.99588851648
100000.01107399592
99999.97412735014
100000.05646163755
99999.88210156701
100000.23932355778
99999.52505277169
100000.92495898683
99998.2330211152
100003.3013220524
99994.00968732641
100010.40047882764
99983.15671443389
100023.64990265465
99976.51794578104
99988.04629443081
100145.85309826546
99438.12024732595
101481.2646572263
96935.88832231019
424271.2560735275
891103.999382312
1.048715475721111e6
1.049223490997546e6
1.058952878948146e6
1.0660776516248265e6
1.0726335942756732e6
1.0782383507660804e6
1.0829618521875518e6
1.086820999456297e6
1.089699597176259e6
1.0917387467554875e6
1.0925786588384095e6
1.092766190384289e6
1.0912202519852344e6
1.0899637962139233e6
1.0853074731193043e6
1.0849317498756687e6
1.0734441412418475e6
1.0869981297177796e6
100000.00041137794
99999.99932130746
100000.00104112501
99999.99833326283
100000.0025959077
99999.99591758374
100000.0063548186
99999.99015658832
100000.01511584767
99999.9771155647
100000.03406887718
99999.95069844548
100000.06861349908
99999.91059944671
100000.10401232226
99999.90585400876
100000.02696564817
100000.13682480634
99999.62997251806
100000.24610927075
100002.1730422453
99985.61063625352
100060.5367544663
99778.98035057115
100728.58147922622
97703.68400967235
107135.30212488919
80321.24312561167
338578.71360423206
818302.6876718404
1.0345642950921737e6
1.0419964506320443e6
1.0499405084127646e6
1.0566034149253503e6
1.0623494446204395e6
1.0670864778352352e6
1.0708010599458585e6
1.073492234820474e6
1.0749912244154748e6
1.07536072043077e6
1.074106747043192e6
1.071567891002903e6
1.0662589048484103e6
1.0597733579205668e6
1.0470634459407429e6
1.0364967080861249e6
1.0069784914564671e6
1.0137861283771786e6
100000.00051881898
99999.9991118404
100000.00142512482
99999.99762183007
100000.00390460824
99999.99351842725
100000.01075053525
99999.98211680936
100000.029823899
99999.95020450874
100000.08334385428
99999.86038514168
100000.23430204322
99999.60634677726
100000.66294100395
99998.87930588065
100001.90976949198
99996.69345835218
100005.89765499861
99988.91709664086
100022.4924975984
99949.46294381752
100125.20120724587
99660.86511905966
100968.72762437613
97159.2149679043
108807.15323797055
75708.34738752992
257007.56842108318
729625.8375079109
1.0112810847491991e6
1.034939044361906e6
1.0403931597339484e6
1.0466056387113057e6
1.0514743872543469e6
1.0552633454716674e6
1.057873511578822e6
1.0592862012212493e6
1.0592957709068584e6
1.0579102138179026e6
1.05461073275277e6
1.0496605851219909e6
1.0417282897137278e6
1.0322185253883952e6
1.0174038973999034e6
1.0025757533599688e6
974413.2686160593
941049.5975322933
100000.00054482449
99999.99905546496
100000.00155271737
99999.99736540267
100000.00442973891
99999.99248631652
100000.01277843521
99999.97818481716
100000.03742377908
99999.93557614658
100000.11145083145
99999.80643817894
100000.33778293717
99999.40794443365
100001.04294839653
99998.1530392295
100003.29176063316
99994.08482600714
100010.75315093955
99980.10103507285
100037.83056157317
99924.95741356505
100157.77115842189
99641.59799284533
100884.92955687664
97659.3797392548
106839.73978808941
81141.45392030095
184629.9858217044
626462.144718943
974796.0805088594
1.0276211302417477e6
1.0305124126988176e6
1.0361574878690796e6
1.0400991840812619e6
1.0428587725372356e6
1.0442631780806679e6
1.0442553826087635e6
1.0425564945467166e6
1.0390567210219685e6
1.0330496950810525e6
1.024401359008307e6
1.0111071577195645e6
992951.4193921877
963115.3005930689
919818.370783712
833294.7724299486
680499.802964644
100000.00049757102
99999.99914069801
100000.0014358841
99999.99755395344
100000.0041620473
99999.99288282929
100000.01223625509
99999.97889260619
100000.03663019558
99999.9361703243
100000.11187822347
99999.80294271714
100000.34908641894
99999.37828466136
100001.1135380558
99997.99473516288
100003.63074806979
99993.39167270357
100012.09069161596
99977.75701088055
100041.18103560366
99923.04684073328
100145.8678998368
99716.10553715366
100577.26610292762
98745.2751520415
103061.48875903102
92126.798487688
127067.55902687823
512516.87609358446
920362.5916132081
1.0185084684939259e6
1.020552921441429e6
1.0253317763287e6
1.0283321261560343e6
1.0300071729601962e6
1.0301516178138235e6
1.0286578435673536e6
1.0251837563265787e6
1.019510688060542e6
1.0107913331837503e6
998624.1666727089
980700.5633964995
956127.4292725762
917823.0312690231
862566.0072207713
766113.5511692537
609054.136306545
100000.00039683384
99999.99932972742
100000.0011337057
99999.99808500143
100000.00326759266
99999.99443347915
100000.00956462136
99999.98354277646
100000.02851175459
99999.95042525913
100000.08672970667
99999.84752113864
100000.26968803279
99999.52036020458
100000.85801818004
99998.45693583066
100002.78830633541
99994.94423199235
100009.17890876986
99983.37428977116
100029.8598055996
99947.35461707454
100089.33601905963
99859.28761314372
100183.9796489588
99881.35037014681
99557.83271335768
102725.2248736231
90020.14792907091
394718.9812283353
843438.9191784543
1.0042177755862824e6
1.010670769666936e6
1.0141821895515267e6
1.0162739717452868e6
1.0168462848255532e6
1.0157181121265953e6
1.0127319845144831e6
1.0074931252645626e6
999700.3308097321
988408.4039956479
973068.7577774825
951259.6053925735
921967.4914934768
878480.2615030886
818777.1361434447
723282.153361265
589335.4617874093
100000.00027063591
99999.99956575275
100000.00074156812
99999.99878263558
100000.0020580322
99999.99657397573
100000.00577994298
99999.99029325721
100000.01641207497
99999.97225227351
100000.04711788165
99999.91984538228
100000.13683434298
99999.7658447369
100000.4017823012
99999.30959717908
100001.1862180737
99997.9700732655
100003.43490244406
99994.33830137897
100008.79274472148
99988.22023701617
100008.83386000161
100021.99642188595
99840.42841420542
100655.77031667747
97660.02655108258
107996.28879961335
75988.60652922836
282745.50746949174
742113.8832017469
979611.291079253
1.000821632214519e6
1.0028076760148841e6
1.0040396563778868e6
1.0035329944317732e6
1.0011632585112281e6
996741.2177220637
989836.6694432617
980105.1767483414
966559.1073729352
948627.0540287925
923918.9328945832
891675.7767476224
845736.2888211759
786035.922163132
696248.4593238479
584484.5193196972
100000.00014814716
99999.99978941772
100000.00036294885
99999.9994526572
100000.00088848254
99999.99864405373
100000.00210963644
99999.99684761689
100000.00464591882
99999.99350339237
100000.00850264051
99999.99044090312
100000.00696811092
100000.00619154033
99999.95431057621
100000.14726256863
99999.61045296081
100000.9452507685
99997.80641129884
100004.97715089316
99988.7876588135
100025.38153976203
99941.46180400343
100138.7726648707
99656.45572340551
100887.99328953834
97592.45861120897
106987.13258840004
80645.4624822833
186786.61710032122
618655.0584938809
938286.2496614694
990478.4033558827
991459.0048421304
991782.7173342018
990233.3258346079
986682.3422688062
980923.0026569552
972509.7083536049
961087.9575238795
945678.0369336591
925766.0814972137
899102.4407793508
865294.4221048151
818900.857517024
761301.9391894105
679323.8974836438
584617.3823522937
100000.00005171048
99999.99995686334
100000.000076612
99999.9999476126
100000.00003197763
100000.00013279829
99999.99951209853
100000.00139727029
99999.99664322354
100000.0076381513
99999.98342658287
100000.03512586563
99999.92697920825
100000.1500293472
99999.69454796794
100000.6182029221
99998.7543301292
100002.50281603276
99994.98157982883
100010.0489861281
99979.89603413366
100040.18792569636
99919.66677302391
100160.52282031307
99678.25139309051
100647.51114039087
98679.4579063647
102807.25939326252
94014.80098785336
116958.45385680601
480321.161570579
872385.5921260501
977197.9099935077
980329.2514731616
979635.6442631822
977095.4256450747
972446.1077174508
965477.5449557492
955746.3689501699