# vtk DataFile Version 2.0
JuliaCFD
ASCII
DATASET UNSTRUCTURED_GRID

POINTS 32898 float
0.0 0.0 -0.05
0.0125 0.0 -0.05
0.025 0.0 -0.05
0.0375 0.0 -0.05
0.05 0.0 -0.05
0.0625 0.0 -0.05
0.075 0.0 -0.05
0.0875 0.0 -0.05
0.1 0.0 -0.05
0.1125 0.0 -0.05
0.125 0.0 -0.05
0.1375 0.0 -0.05
0.15 0.0 -0.05
0.1625 0.0 -0.05
0.175 0.0 -0.05
0.1875 0.0 -0.05
0.2 0.0 -0.05
0.2125 0.0 -0.05
0.225 0.0 -0.05
0.2375 0.0 -0.05
0.25 0.0 -0.05
0.2625 0.0 -0.05
0.275 0.0 -0.05
0.2875 0.0 -0.05
0.3 0.0 -0.05
0.3125 0.0 -0.05
0.325 0.0 -0.05
0.3375 0.0 -0.05
0.35 0.0 -0.05
0.3625 0.0 -0.05
0.375 0.0 -0.05
0.3875 0.0 -0.05
0.4 0.0 -0.05
0.4125 0.0 -0.05
0.425 0.0 -0.05
0.4375 0.0 -0.05
0.45 0.0 -0.05
0.4625 0.0 -0.05
0.475 0.0 -0.05
0.4875 0.0 -0.05
0.5 0.0 -0.05
0.5125 0.0 -0.05
0.525 0.0 -0.05
0.5375 0.0 -0.05
0.55 0.0 -0.05
0.5625 0.0 -0.05
0.575 0.0 -0.05
0.5875 0.0 -0.05
0.6 0.0 -0.05
0.0 0.0125 -0.05
0.0125 0.0125 -0.05
0.025 0.0125 -0.05
0.0375 0.0125 -0.05
0.05 0.0125 -0.05
0.0625 0.0125 -0.05
0.075 0.0125 -0.05
0.0875 0.0125 -0.05
0.1 0.0125 -0.05
0.1125 0.0125 -0.05
0.125 0.0125 -0.05
0.1375 0.0125 -0.05
0.15 0.0125 -0.05
0.1625 0.0125 -0.05
0.175 0.0125 -0.05
0.1875 0.0125 -0.05
0.2 0.0125 -0.05
0.2125 0.0125 -0.05
0.225 0.0125 -0.05
0.2375 0.0125 -0.05
0.25 0.0125 -0.05
0.2625 0.0125 -0.05
0.275 0.0125 -0.05
0.2875 0.0125 -0.05
0.3 0.0125 -0.05
0.3125 0.0125 -0.05
0.325 0.0125 -0.05
0.3375 0.0125 -0.05
0.35 0.0125 -0.05
0.3625 0.0125 -0.05
0.375 0.0125 -0.05
0.3875 0.0125 -0.05
0.4 0.0125 -0.05
0.4125 0.0125 -0.05
0.425 0.0125 -0.05
0.4375 0.0125 -0.05
0.45 0.0125 -0.05
0.4625 0.0125 -0.05
0.475 0.0125 -0.05
0.4875 0.0125 -0.05
0.5 0.0125 -0.05
0.5125 0.0125 -0.05
0.525 0.0125 -0.05
0.5375 0.0125 -0.05
0.55 0.0125 -0.05
0.5625 0.0125 -0.05
0.575 0.0125 -0.05
0.5875 0.0125 -0.05
0.6 0.0125 -0.05
0.0 0.025 -0.05
0.0125 0.025 -0.05
0.025 0.025 -0.05
0.0375 0.025 -0.05
0.05 0.025 -0.05
0.0625 0.025 -0.05
0.075 0.025 -0.05
0.0875 0.025 -0.05
0.1 0.025 -0.05
0.1125 0.025 -0.05
0.125 0.025 -0.05
0.1375 0.025 -0.05
0.15 0.025 -0.05
0.1625 0.025 -0.05
0.175 0.025 -0.05
0.1875 0.025 -0.05
0.2 0.025 -0.05
0.2125 0.025 -0.05
0.225 0.025 -0.05
0.2375 0.025 -0.05
0.25 0.025 -0.05
0.2625 0.025 -0.05
0.275 0.025 -0.05
0.2875 0.025 -0.05
0.3 0.025 -0.05
0.3125 0.025 -0.05
0.325 0.025 -0.05
0.3375 0.025 -0.05
0.35 0.025 -0.05
0.3625 0.025 -0.05
0.375 0.025 -0.05
0.3875 0.025 -0.05
0.4 0.025 -0.05
0.4125 0.025 -0.05
0.425 0.025 -0.05
0.4375 0.025 -0.05
0.45 0.025 -0.05
0.4625 0.025 -0.05
0.475 0.025 -0.05
0.4875 0.025 -0.05
0.5 0.025 -0.05
0.5125 0.025 -0.05
0.525 0.025 -0.05
0.5375 0.025 -0.05
0.55 0.025 -0.05
0.5625 0.025 -0.05
0.575 0.025 -0.05
0.5875 0.025 -0.05
0.6 0.025 -0.05
0.0 0.0375 -0.05
0.0125 0.0375 -0.05
0.025 0.0375 -0.05
0.0375 0.0375 -0.05
0.05 0.0375 -0.05
0.0625 0.0375 -0.05
0.075 0.0375 -0.05
0.0875 0.0375 -0.05
0.1 0.0375 -0.05
0.1125 0.0375 -0.05
0.125 0.0375 -0.05
0.1375 0.0375 -0.05
0.15 0.0375 -0.05
0.1625 0.0375 -0.05
0.175 0.0375 -0.05
0.1875 0.0375 -0.05
0.2 0.0375 -0.05
0.2125 0.0375 -0.05
0.225 0.0375 -0.05
0.2375 0.0375 -0.05
0.25 0.0375 -0.05
0.2625 0.0375 -0.05
0.275 0.0375 -0.05
0.2875 0.0375 -0.05
0.3 0.0375 -0.05
0.3125 0.0375 -0.05
0.325 0.0375 -0.05
0.3375 0.0375 -0.05
0.35 0.0375 -0.05
0.3625 0.0375 -0.05
0.375 0.0375 -0.05
0.3875 0.0375 -0.05
0.4 0.0375 -0.05
0.4125 0.0375 -0.05
0.425 0.0375 -0.05
0.4375 0.0375 -0.05
0.45 0.0375 -0.05
0.4625 0.0375 -0.05
0.475 0.0375 -0.05
0.4875 0.0375 -0.05
0.5 0.0375 -0.05
0.5125 0.0375 -0.05
0.525 0.0375 -0.05
0.5375 0.0375 -0.05
0.55 0.0375 -0.05
0.5625 0.0375 -0.05
0.575 0.0375 -0.05
0.5875 0.0375 -0.05
0.6 0.0375 -0.05
0.0 0.05 -0.05
0.0125 0.05 -0.05
0.025 0.05 -0.05
0.0375 0.05 -0.05
0.05 0.05 -0.05
0.0625 0.05 -0.05
0.075 0.05 -0.05
0.0875 0.05 -0.05
0.1 0.05 -0.05
0.1125 0.05 -0.05
0.125 0.05 -0.05
0.1375 0.05 -0.05
0.15 0.05 -0.05
0.1625 0.05 -0.05
0.175 0.05 -0.05
0.1875 0.05 -0.05
0.2 0.05 -0.05
0.2125 0.05 -0.05
0.225 0.05 -0.05
0.2375 0.05 -0.05
0.25 0.05 -0.05
0.2625 0.05 -0.05
0.275 0.05 -0.05
0.2875 0.05 -0.05
0.3 0.05 -0.05
0.3125 0.05 -0.05
0.325 0.05 -0.05
0.3375 0.05 -0.05
0.35 0.05 -0.05
0.3625 0.05 -0.05
0.375 0.05 -0.05
0.3875 0.05 -0.05
0.4 0.05 -0.05
0.4125 0.05 -0.05
0.425 0.05 -0.05
0.4375 0.05 -0.05
0.45 0.05 -0.05
0.4625 0.05 -0.05
0.475 0.05 -0.05
0.4875 0.05 -0.05
0.5 0.05 -0.05
0.5125 0.05 -0.05
0.525 0.05 -0.05
0.5375 0.05 -0.05
0.55 0.05 -0.05
0.5625 0.05 -0.05
0.575 0.05 -0.05
0.5875 0.05 -0.05
0.6 0.05 -0.05
0.0 0.0625 -0.05
0.0125 0.0625 -0.05
0.025 0.0625 -0.05
0.0375 0.0625 -0.05
0.05 0.0625 -0.05
0.0625 0.0625 -0.05
0.075 0.0625 -0.05
0.0875 0.0625 -0.05
0.1 0.0625 -0.05
0.1125 0.0625 -0.05
0.125 0.0625 -0.05
0.1375 0.0625 -0.05
0.15 0.0625 -0.05
0.1625 0.0625 -0.05
0.175 0.0625 -0.05
0.1875 0.0625 -0.05
0.2 0.0625 -0.05
0.2125 0.0625 -0.05
0.225 0.0625 -0.05
0.2375 0.0625 -0.05
0.25 0.0625 -0.05
0.2625 0.0625 -0.05
0.275 0.0625 -0.05
0.2875 0.0625 -0.05
0.3 0.0625 -0.05
0.3125 0.0625 -0.05
0.325 0.0625 -0.05
0.3375 0.0625 -0.05
0.35 0.0625 -0.05
0.3625 0.0625 -0.05
0.375 0.0625 -0.05
0.3875 0.0625 -0.05
0.4 0.0625 -0.05
0.4125 0.0625 -0.05
0.425 0.0625 -0.05
0.4375 0.0625 -0.05
0.45 0.0625 -0.05
0.4625 0.0625 -0.05
0.475 0.0625 -0.05
0.4875 0.0625 -0.05
0.5 0.0625 -0.05
0.5125 0.0625 -0.05
0.525 0.0625 -0.05
0.5375 0.0625 -0.05
0.55 0.0625 -0.05
0.5625 0.0625 -0.05
0.575 0.0625 -0.05
0.5875 0.0625 -0.05
0.6 0.0625 -0.05
0.0 0.075 -0.05
0.0125 0.075 -0.05
0.025 0.075 -0.05
0.0375 0.075 -0.05
0.05 0.075 -0.05
0.0625 0.075 -0.05
0.075 0.075 -0.05
0.0875 0.075 -0.05
0.1 0.075 -0.05
0.1125 0.075 -0.05
0.125 0.075 -0.05
0.1375 0.075 -0.05
0.15 0.075 -0.05
0.1625 0.075 -0.05
0.175 0.075 -0.05
0.1875 0.075 -0.05
0.2 0.075 -0.05
0.2125 0.075 -0.05
0.225 0.075 -0.05
0.2375 0.075 -0.05
0.25 0.075 -0.05
0.2625 0.075 -0.05
0.275 0.075 -0.05
0.2875 0.075 -0.05
0.3 0.075 -0.05
0.3125 0.075 -0.05
0.325 0.075 -0.05
0.3375 0.075 -0.05
0.35 0.075 -0.05
0.3625 0.075 -0.05
0.375 0.075 -0.05
0.3875 0.075 -0.05
0.4 0.075 -0.05
0.4125 0.075 -0.05
0.425 0.075 -0.05
0.4375 0.075 -0.05
0.45 0.075 -0.05
0.4625 0.075 -0.05
0.475 0.075 -0.05
0.4875 0.075 -0.05
0.5 0.075 -0.05
0.5125 0.075 -0.05
0.525 0.075 -0.05
0.5375 0.075 -0.05
0.55 0.075 -0.05
0.5625 0.075 -0.05
0.575 0.075 -0.05
0.5875 0.075 -0.05
0.6 0.075 -0.05
0.0 0.0875 -0.05
0.0125 0.0875 -0.05
0.025 0.0875 -0.05
0.0375 0.0875 -0.05
0.05 0.0875 -0.05
0.0625 0.0875 -0.05
0.075 0.0875 -0.05
0.0875 0.0875 -0.05
0.1 0.0875 -0.05
0.1125 0.0875 -0.05
0.125 0.0875 -0.05
0.1375 0.0875 -0.05
0.15 0.0875 -0.05
0.1625 0.0875 -0.05
0.175 0.0875 -0.05
0.1875 0.0875 -0.05
0.2 0.0875 -0.05
0.2125 0.0875 -0.05
0.225 0.0875 -0.05
0.2375 0.0875 -0.05
0.25 0.0875 -0.05
0.2625 0.0875 -0.05
0.275 0.0875 -0.05
0.2875 0.0875 -0.05
0.3 0.0875 -0.05
0.3125 0.0875 -0.05
0.325 0.0875 -0.05
0.3375 0.0875 -0.05
0.35 0.0875 -0.05
0.3625 0.0875 -0.05
0.375 0.0875 -0.05
0.3875 0.0875 -0.05
0.4 0.0875 -0.05
0.4125 0.0875 -0.05
0.425 0.0875 -0.05
0.4375 0.0875 -0.05
0.45 0.0875 -0.05
0.4625 0.0875 -0.05
0.475 0.0875 -0.05
0.4875 0.0875 -0.05
0.5 0.0875 -0.05
0.5125 0.0875 -0.05
0.525 0.0875 -0.05
0.5375 0.0875 -0.05
0.55 0.0875 -0.05
0.5625 0.0875 -0.05
0.575 0.0875 -0.05
0.5875 0.0875 -0.05
0.6 0.0875 -0.05
0.0 0.1 -0.05
0.0125 0.1 -0.05
0.025 0.1 -0.05
0.0375 0.1 -0.05
0.05 0.1 -0.05
0.0625 0.1 -0.05
0.075 0.1 -0.05
0.0875 0.1 -0.05
0.1 0.1 -0.05
0.1125 0.1 -0.05
0.125 0.1 -0.05
0.1375 0.1 -0.05
0.15 0.1 -0.05
0.1625 0.1 -0.05
0.175 0.1 -0.05
0.1875 0.1 -0.05
0.2 0.1 -0.05
0.2125 0.1 -0.05
0.225 0.1 -0.05
0.2375 0.1 -0.05
0.25 0.1 -0.05
0.2625 0.1 -0.05
0.275 0.1 -0.05
0.2875 0.1 -0.05
0.3 0.1 -0.05
0.3125 0.1 -0.05
0.325 0.1 -0.05
0.3375 0.1 -0.05
0.35 0.1 -0.05
0.3625 0.1 -0.05
0.375 0.1 -0.05
0.3875 0.1 -0.05
0.4 0.1 -0.05
0.4125 0.1 -0.05
0.425 0.1 -0.05
0.4375 0.1 -0.05
0.45 0.1 -0.05
0.4625 0.1 -0.05
0.475 0.1 -0.05
0.4875 0.1 -0.05
0.5 0.1 -0.05
0.5125 0.1 -0.05
0.525 0.1 -0.05
0.5375 0.1 -0.05
0.55 0.1 -0.05
0.5625 0.1 -0.05
0.575 0.1 -0.05
0.5875 0.1 -0.05
0.6 0.1 -0.05
0.0 0.1125 -0.05
0.0125 0.1125 -0.05
0.025 0.1125 -0.05
0.0375 0.1125 -0.05
0.05 0.1125 -0.05
0.0625 0.1125 -0.05
0.075 0.1125 -0.05
0.0875 0.1125 -0.05
0.1 0.1125 -0.05
0.1125 0.1125 -0.05
0.125 0.1125 -0.05
0.1375 0.1125 -0.05
0.15 0.1125 -0.05
0.1625 0.1125 -0.05
0.175 0.1125 -0.05
0.1875 0.1125 -0.05
0.2 0.1125 -0.05
0.2125 0.1125 -0.05
0.225 0.1125 -0.05
0.2375 0.1125 -0.05
0.25 0.1125 -0.05
0.2625 0.1125 -0.05
0.275 0.1125 -0.05
0.2875 0.1125 -0.05
0.3 0.1125 -0.05
0.3125 0.1125 -0.05
0.325 0.1125 -0.05
0.3375 0.1125 -0.05
0.35 0.1125 -0.05
0.3625 0.1125 -0.05
0.375 0.1125 -0.05
0.3875 0.1125 -0.05
0.4 0.1125 -0.05
0.4125 0.1125 -0.05
0.425 0.1125 -0.05
0.4375 0.1125 -0.05
0.45 0.1125 -0.05
0.4625 0.1125 -0.05
0.475 0.1125 -0.05
0.4875 0.1125 -0.05
0.5 0.1125 -0.05
0.5125 0.1125 -0.05
0.525 0.1125 -0.05
0.5375 0.1125 -0.05
0.55 0.1125 -0.05
0.5625 0.1125 -0.05
0.575 0.1125 -0.05
0.5875 0.1125 -0.05
0.6 0.1125 -0.05
0.0 0.125 -0.05
0.0125 0.125 -0.05
0.025 0.125 -0.05
0.0375 0.125 -0.05
0.05 0.125 -0.05
0.0625 0.125 -0.05
0.075 0.125 -0.05
0.0875 0.125 -0.05
0.1 0.125 -0.05
0.1125 0.125 -0.05
0.125 0.125 -0.05
0.1375 0.125 -0.05
0.15 0.125 -0.05
0.1625 0.125 -0.05
0.175 0.125 -0.05
0.1875 0.125 -0.05
0.2 0.125 -0.05
0.2125 0.125 -0.05
0.225 0.125 -0.05
0.2375 0.125 -0.05
0.25 0.125 -0.05
0.2625 0.125 -0.05
0.275 0.125 -0.05
0.2875 0.125 -0.05
0.3 0.125 -0.05
0.3125 0.125 -0.05
0.325 0.125 -0.05
0.3375 0.125 -0.05
0.35 0.125 -0.05
0.3625 0.125 -0.05
0.375 0.125 -0.05
0.3875 0.125 -0.05
0.4 0.125 -0.05
0.4125 0.125 -0.05
0.425 0.125 -0.05
0.4375 0.125 -0.05
0.45 0.125 -0.05
0.4625 0.125 -0.05
0.475 0.125 -0.05
0.4875 0.125 -0.05
0.5 0.125 -0.05
0.5125 0.125 -0.05
0.525 0.125 -0.05
0.5375 0.125 -0.05
0.55 0.125 -0.05
0.5625 0.125 -0.05
0.575 0.125 -0.05
0.5875 0.125 -0.05
0.6 0.125 -0.05
0.0 0.1375 -0.05
0.0125 0.1375 -0.05
0.025 0.1375 -0.05
0.0375 0.1375 -0.05
0.05 0.1375 -0.05
0.0625 0.1375 -0.05
0.075 0.1375 -0.05
0.0875 0.1375 -0.05
[...]
CELL_DATA 16128
SCALARS P float 1
LOOKUP_TABLE default
99999.98122907992
100000.03166273716
99999.9482984853
100000.08622799245
99999.8581361431
100000.23542036072
99999.61144092659
100000.6434530181
99998.93665734673
100001.75934623713
99997.09129432107
100004.81079898459
99992.04449663598
100013.15759297131
99978.22917251964
100036.02593552295
99940.29226068492
100098.91752387898
99835.55994958164
100272.13315642545
99547.87094186431
100731.67292300188
98829.63167059846
101608.11939432555
98146.90582068311
419724.2525753398
892695.815012449
1.0629457522388727e6
1.0570372346913866e6
1.072974973182263e6
1.0834936094083637e6
1.094796223025276e6
1.105319265784453e6
1.1154719399097646e6
1.1251199293408734e6
1.1343182123017786e6
1.1430021052225688e6
1.1512340502030086e6
1.1588590716813134e6
1.1660726703607838e6
1.1724450542460547e6
1.1786158715973273e6
1.1833466059742596e6
1.188667275623228e6
1.1908865808857342e6
1.196329910621697e6
1.1937769075282551e6
1.2027716047736998e6
99999.98140351342
100000.03127284652
99999.94889375217
100000.08507234401
99999.86008775602
100000.23182135809
99999.61777680604
100000.63198519326
99998.95708224038
100001.72282020285
99997.15591700214
100004.69743011467
99992.2401341282
100012.82745728527
99978.7674117573
100035.19515809597
99941.45372136864
100097.61968209312
99836.01337927004
100275.72572562126
99530.93853088327
100787.20967991707
98673.0146807239
102042.86231005807
97138.1363110515
416366.71014102147
892134.7833372976
1.0669768243568356e6
1.0619256193902728e6
1.0783545280004693e6
1.0891323137074483e6
1.100576915528607e6
1.111200133818085e6
1.121437582679228e6
1.1311715111387523e6
1.1404615650528814e6
1.149244152878021e6
1.1575803966784847e6
1.165312261323178e6
1.1726323540506365e6
1.1791051309493638e6
1.1853680758689619e6
1.1901715249303088e6
1.1955517890066314e6
1.19778730671569e6
1.2032555502444848e6
1.2006110738991073e6
1.209704708611591e6
99999.98237416783
100000.02960045123
99999.95162407558
100000.08045382962
99999.86769886062
100000.21909891775
99999.63877577847
100000.59719916279
99999.01427225997
100001.62898214448
99997.30880499248
100004.44992374755
99992.63672795625
100012.20062306852
99979.73709703187
100033.74802703696
99943.46989087084
100095.22356442512
99837.53731046102
100279.72467691099
99506.34128395867
100879.59489382493
98377.78593457582
103004.50748886036
94411.76289738735
405269.1026407934
881638.8517640798
1.063127188737295e6
1.058261673190099e6
1.0741820975100556e6
1.0847748668308898e6
1.096006927140644e6
1.1064599970271308e6
1.1165275184705758e6
1.126093404672821e6
1.1352112847586363e6
1.1438190556239956e6
1.1519779695315713e6
1.1595345830463816e6
1.1666816517985028e6
1.172992785706653e6
1.1791015122378874e6
1.1837757184317943e6
1.1890388510557807e6
1.1911935985428058e6
1.1966128120995262e6
1.1938916586042123e6
1.2031432062329499e6
99999.98373684438
100000.02724470345
99999.9554636499
100000.07395261909
99999.87842081011
100000.20114779688
99999.66848627912
100000.54779798815
99999.09594043596
100001.49399440626
99997.53093407977
100004.08563861874
99993.23040836686
100011.24151385504
99981.26422872317
100031.37785294323
99946.97370205297
100090.56990132209
99842.04375078247
100281.32476518521
99477.85985755202
101002.96199372571
97964.17621432529
104390.48222028703
90607.45595062635
389250.2433311234
868394.7412820418
1.0617323507896755e6
1.058043948801457e6
1.073808082025993e6
1.0845723746734797e6
1.0958204940216956e6
1.1062939271807405e6
1.1163572359155645e6
1.125916710441204e6
1.1350279591846033e6
1.1436351099576014e6
1.1518007106003498e6
1.1593750517649646e6
1.166548773519324e6
1.1729000408593765e6
1.1790543178814605e6
1.1837860094824524e6
1.1891051084101233e6
1.1913087461730407e6
1.1967983308159017e6
1.1940145833188072e6
1.2035191538126683e6
99999.98540665167
100000.02435124392
99999.96018121747
100000.06595324924
99999.89164321199
100000.17895376134
99999.70536178029
100000.48620537123
99999.19837500069
100001.32346545655
99997.81404870025
100003.61639141334
99994.00500668658
100009.9707057908
99983.32661808738
100028.09732422416
99951.99926353984
100083.46739465912
99850.22496148171
100278.3452144561
99452.20895196967
101137.46389111929
97490.49591636025
106040.52408646508
86151.38855408052
367722.85212803213
849029.3557738182
1.0579016772482095e6
1.0558246931145974e6
1.0708521859867875e6
1.0815453014537652e6
1.0925560823217833e6
1.1028445704118933e6
1.1127098917763266e6
1.1220755089838486e6
1.130990571242795e6
1.139402521702226e6
1.1473730444347665e6
1.154756983459307e6
1.1617426643411585e6
1.167917333966142e6
1.1738983098657397e6
1.1784772262275168e6
1.183649649070507e6
1.1857261701587692e6
1.1911417319563406e6
1.1881802789547422e6
1.1979472239498848e6
99999.98727468168
100000.02111159833
99999.96546767208
100000.0569825748
99999.90650261588
100000.1539621616
99999.74702328185
100000.4163611874
99999.31510227003
100001.12802789523
99998.140789038
100003.07036242196
99994.91528763734
100008.45941507953
99985.81627667055
100024.05792609685
99958.3730298844
100073.98819889007
99862.57905806121
100268.259973091
99438.40479442044
101254.8052073824
97039.23683655595
107705.2017795977
81701.66219183824
341542.170291345
824215.5876468255
1.053128872300519e6
1.0540756940602602e6
1.0682549545570384e6
1.0790457146237483e6
1.089900130300158e6
1.1000820399457847e6
1.1098136310363433e6
1.119045577386164e6
1.1278239573859705e6
1.1361034242732478e6
1.1439472949208585e6
1.1512173397509719e6
1.1581009200059443e6
1.1641956842338822e6
1.1701106587323104e6
1.174652398563832e6
1.1798009275421856e6
1.18186355940532e6
1.1873239967419587e6
1.1842348645774354e6
1.194378896768781e6
99999.98922197358
100000.01774118436
99999.97097102624
100000.04765419586
99999.92196881033
100000.12794316886
99999.79046548692
100000.3434062137
99999.4373626177
100000.9226284602
99998.48573372919
100002.49064116894
99995.88880268493
100006.82785885475
99988.53852880473
100019.56128110297
99965.66857342685
100062.61119487241
99878.9945990963
100249.28974756805
99445.015690627
101324.34712478936
96703.604278524
109076.65286374446
77957.50937133195
311234.758818016
792995.8484941936
1.0460380791944343e6
1.0518025211736232e6
1.0646681609825012e6
1.0754967750553193e6
1.0860678691017735e6
1.0960358216145793e6
1.105524984603203e6
1.1145137492785607e6
1.123041393508116e6
1.131067575543769e6
1.1386548269775554e6
1.145670016412808e6
1.1522971583393672e6
1.1581431136379906e6
1.1638071964728427e6
1.1681125329776986e6
1.1730296967095432e6
1.1748678277436965e6
1.1801974817375792e6
1.1768013051561106e6
1.187341358602193e6
99999.99113379544
100000.01445268042
99999.97634042002
100000.03858922383
99999.93698049807
100000.10275257788
99999.83247108443
100000.27296019926
99999.55535353004
100000.72439649566
99998.81898456541
100001.92928935938
99996.8353386481
100005.23085922551
99991.23176657548
100015.03667346972
99973.21691246083
100050.26700203965
99898.52396899708
100221.11232184111
99478.20312361953
101317.93212105682
96578.39261063957
109792.22291225148
75673.9076242134
277727.41668135085
755034.9220727853
1.0361778014813936e6
1.0495063451028655e6
1.0606790613204825e6
1.071615059343044e6
1.0818943848244678e6
1.0916460545829856e6
1.1008841681431818e6
1.1096179865792121e6
1.1178813169301036e6
1.1256408470437415e6
1.1329609946060937e6
1.1397174710513223e6
1.1460956939929447e6
1.151717898027888e6
1.1571800530078746e6
1.1613271137924532e6
1.1661231070091436e6
1.1678676937091204e6
1.1732197924395925e6
1.1696093243902535e6
1.180706025902491e6
99999.99291551982
100000.01142325373
99999.98128144955
100000.03031227553
99999.95062984011
100000.07999546443
99999.87021400406
100000.21003875967
99999.66016165126
100000.5492291584
99999.11215977091
100001.43700174647
99997.66452314016
100003.82875076478
99993.61409257608
100010.9709825904
99980.20130244963
100038.24264666345
99919.36925632102
100185.37569553884
99539.3531359871
101219.35578324657
96725.03636786423
109626.0499274223
75472.35189606233
242095.33046955898
709851.4848802624
1.0224228519617716e6
1.0470218617715574e6
1.0560479872855027e6
1.0670826832516042e6
1.0770004823092741e6
1.08646726097694e6
1.0953807875856536e6
1.1037792402688365e6
1.111689272226759e6
1.119081341640372e6
1.126017796222498e6
1.132377330407188e6
1.1383396983701205e6
1.1435322150229453e6
1.148539545846107e6
1.152215440282833e6
1.1565272633594745e6
1.1577544792149854e6
1.1627407331751843e6
1.1584862551815289e6
1.1701233466031244e6
99999.99450602362
100000.00876500594
99999.98560720267
100000.02315287368
99999.96234385045
100000.06068628417
99999.90189025628
100000.15788267418
99999.74592323003
100000.40781825909
99999.34564158587
100001.04996210954
99998.30936394272
100002.74570540513
99995.45554176444
100007.78697109224
99985.85285601838
100027.89464650654
99939.23055386242
100145.53112327874
99624.35260626451
101028.18620877921
97166.43481206536
108467.9784993264
77755.67607704134
205698.55895972135
657258.4614777344
1.0035811817108438e6
1.0443562764354994e6
1.0509163062953425e6
1.0620393513070778e6
1.071564532373344e6
1.0807051669610082e6
1.0892503398799242e6
1.0972635606634174e6
1.1047663225913327e6
1.1117341506565204e6
1.118231018541601e6
1.1241449400732182e6
1.1296601504752554e6
1.134424737587837e6
1.1390304040427296e6
1.1423648576455924e6
1.146407823599337e6
1.1474320828778825e6
1.1524106915884179e6
1.147845816201638e6
1.1603184126891538e6
99999.99588347979
100000.00650964546
99999.98926594667
100000.01718818597
99999.97199670301
100000.04502586658
99999.92715776946
100000.11709352653
99999.81151829328
100000.30234766827
99999.51499245438
100000.7774652141
99998.74999080322
100002.02468950285
99996.66253246018
100005.6883440859
99989.72694903168
100020.18336914711
99956.02433992138
100105.99177576385
99723.78276727426
100764.3819552397
97860.48276427812
106418.45426753872
82535.28984100421
170161.30704388258
597393.1576217521
978159.2049185857
1.0412528457158838e6
1.0453108488408112e6
1.0564308570783061e6
1.0655263804055082e6
1.0742765353930658e6
1.0823862225510112e6
1.0899343792850985e6
1.0969358710584436e6
1.103364915081259e6
1.1092788896530021e6
1.1145609551870478e6
1.119381128507902e6
1.1233762942177625e6
1.127114514111829e6
1.1294590025111267e6
1.1324018395504933e6
1.1321283149940372e6
1.1359944443711005e6
1.1297864998277992e6
1.1428596234057066e6
99999.99706085464
100000.00461557336
99999.99233118007
100000.01225775189
99999.97989442597
100000.03241193379
99999.94715949563
100000.0855141503
99999.86095249267
100000.2254769463
99999.63345612295
100000.59607938075
99999.02682933595
100001.59855636436
99997.33998086542
100004.5295395481
99991.97093496907
100015.14317261812
99968.9013659526
100070.34579511735
99825.78783481868
100465.05470608744
98710.63778377339
103801.60815097501
89284.12578444734
137400.80945328303
530932.8051018084
944494.9633320424
1.0372239422938244e6
1.039358503830312e6
1.05028558502466e6
1.0589366786606545e6
1.0672364094471906e6
1.0748522678317756e6
1.0818665725664224e6
1.0882902875533125e6
1.094097249612691e6
1.0993431185970875e6
1.1039169444180639e6
1.1079931935211504e6
1.111234170696294e6
1.1142275544235485e6
1.1158996247006094e6
1.118279323228078e6
1.1176132297075025e6
1.1213421020441009e6
1.1147925094041592e6
1.1289821314452724e6
99999.99807107869
100000.00299858516
99999.99495055038
100000.00805881633
99999.98660881814
100000.0217354421
99999.96400661826
100000.0591242329
99999.90182985376
100000.16289125371
99999.72781331858
100000.4560878411
99999.23123838099
100001.30192343901
99997.7806781314
100003.8113624491
99993.381927663
100011.67337358529
99978.83932280123
100039.87354192538
99919.61202556251
100174.56801442977
99577.7309741589
101107.9510558387
96865.3600208951
109620.46497798881
459268.5886338248
900806.8573514665
1.0313382747497277e6
1.0331936161624911e6
1.0435979852290327e6
1.0518047291292977e6
1.0595871442746604e6
1.066642270088451e6
1.0730381936164938e6
1.0787792310650887e6
1.0838283781238643e6
1.0882244178765279e6
1.091834183943203e6
1.0947950377611148e6
1.0967154925740364e6
1.0981093783699912e6
1.0977681094802013e6
1.0976743910161175e6
1.0937224455311734e6
1.0940771679757605e6
1.0825144244850539e6
1.0966148277704217e6
99999.9989467909
100000.00157725258
99999.99726819072
100000.00429739051
99999.99270148865
100000.01189822155
99999.97982136633
100000.03381532269
99999.94208003895
100000.09931592469
99999.8274003116
100000.30138718296
99999.46986381862
100000.93400940349
99998.35718340737
100002.85946481086
99995.13238605807
100007.89469723911
99988.38020704925
100012.90352505512
99999.56336584166
99931.10914371
100313.56540035908
98861.4785014579
103664.05984211888
89120.7355254797
384677.61472645047
845422.9208116928
1.0220842530203192e6
1.0269626317362505e6
1.0363803708287018e6
1.0441637237557545e6
1.0513681552501724e6
1.057802617676621e6
1.0635062743045962e6
1.0684786644943822e6
1.0726724267455626e6
1.0761140350353462e6
1.0786632824363129e6
1.0804479553232829e6
1.0810957701367193e6
1.0811339447550073e6
1.0794778966154093e6
1.0781107933417025e6
1.073363904955932e6
1.0728253285519565e6
1.061265497914584e6
1.0746051069941563e6
99999.99970213813
100000.00031558103
99999.99934970937
100000.00083751867
99999.99844108454
100000.00235914114
99999.99568782622
100000.00740872661
99999.98607851106
100000.02596338885
99999.94984052608
100000.09672297002
99999.8129233418
100000.35600277346
99999.34080001446
100001.15397485187
99998.18835218018
100002.11625442067
100000.17419520052
99986.46191116354
100064.67526269596
99758.0379981605
100803.24510361462
97460.2946786351
108038.64967910113
77677.49189558048
310292.3916465888
777196.2407409598
1.007295230916029e6
1.0207623547302517e6
1.0286619809842668e6
1.0360474942631605e6
1.0426183977751035e6
1.0483710748308252e6
1.0533029322476725e6
1.0574039927114774e6
1.0606040781270938e6
1.0628966195446528e6
1.0640925207550917e6
1.0642404124280377e6
1.0628364965681408e6
1.060200574312686e6
1.0548519982192162e6
1.0483447102690368e6
1.0356736861175547e6
1.0250669844894446e6
995677.2409738862
1.002228791603045e6
100000.0003248651
99999.9992433352
100000.00114455426
99999.99777954705
100000.00364629626
99999.99345283363
100000.01100559576
99999.98096708152
100000.03198359371
99999.94593609103
100000.09008851796
99999.84985976889
100000.24945214794
99999.58097073356
100000.72207255257
99998.68398790712
100002.61999764096
99994.1392379942
100014.61489436719
99960.1554118886
100113.58168608615
99665.66268917038
100991.04377151419
97078.56568493563
108988.28667011444
75660.99268227642
239791.47477203846
696032.7033018961
984244.2032593859
1.0145561080306829e6
1.0205291277550007e6
1.0275108768288494e6
1.0334021188367348e6
1.0384181176012798e6
1.0425120408639143e6
1.0456623506391902e6
1.0477754918960554e6
1.0488127767910121e6
1.0485502436757461e6
1.0469817764622314e6
1.0435778578589788e6
1.038581229188613e6
1.0306587586464268e6
1.0211704009272559e6
1.00640487110352e6
991548.9924946567
963398.9202281141
930285.6164188529
100000.00078287159
99999.99844201686
100000.00250807345
99999.99541938769
100000.00775192527
99999.98628001432
100000.02365768314
99999.95855510939
100000.07202067575
99999.87404289264
100000.2200411742
99999.61386455664
100000.67981267779
99998.79457133794
100002.15858897085
99996.0717281741
100007.32049141651
99985.8639045823
100028.61365527523
99938.42639314635
100141.32823181358
99653.05054426986
100901.27460375061
97580.51437825306
106982.18135222896
81407.6266287553
177013.20586481338
603180.8834806626
949752.2268137474
1.0079422486426987e6
1.012135888887066e6
1.0186189820917626e6
1.0237926356604549e6
1.0280201074858553e6
1.0312164971438171e6
1.0333413747288579e6
1.0342688430019653e6
1.0339128502735542e6
1.0319797889168451e6
1.0283446791949561e6
1.0222937365314333e6
1.0136768537917336e6
1.0005012190338237e6
982524.2126383757
953006.691167085
910088.8470362428
824449.5231205075
672850.3942567199
100000.00104321574
99999.99800006693
100000.00327880999
99999.99409522196
100000.0100940027
99999.98216409374
100000.03103405274
99999.94530915552
100000.09611010774
99999.83000138537
100000.30121952578
99999.46356936313
100000.95904886496
99998.2759475934
100003.11733530679
99994.3214919222
100010.43687501625
99980.58733356657
100036.66526602212
99929.24583666613
100140.30746937131
99711.15727491496
100622.08764502188
98594.104563069
103441.85117742782
91583.58808050802
126215.1200644526
501547.0514900444
900218.4010749054
999679.777265994
1.0036539817838565e6
1.0094249260885158e6
1.0138624552132753e6
1.0172631411574446e6
1.0195231248230883e6
1.0205770365259566e6
1.0202670076434398e6
1.0184562768565431e6
1.0147909632414912e6
1.0090365423795296e6
1.0003413793274281e6
988290.0035704043
970595.206500177
946332.9132314423
908532.1136053951
853831.4969668
758508.7620913924
602620.0449529442
100000.0010948196
99999.9979576147
100000.00337630567
99999.9939897992
100000.01028827022
99999.98191109959
100000.03146940617
99999.94463717892
100000.0973205354
99999.82781969772
100000.3054397155
99999.45539197639
100000.97481538456
99998.24723553388
100003.16336731099
99994.27199313119
100010.39021728768
99981.1593120639
100034.01062371106
99939.2543504276
100105.96164584607
99823.09004327173
100266.66881561457
99687.08535640132
100013.74294051892
101715.43724875702
91854.32196041835
396307.7778445589
832129.2406058002
987155.2227682292
995171.0108604925
999956.6893948311
1.0036721301975223e6
1.0062315394332417e6
1.0075408129687405e6
1.0075091105240402e6
1.0059472163289429e6
1.0026779871542723e6
997291.7298992841
989472.662059355
978273.0652735716
963129.7833234138
941648.5659585043
912774.7999722408
869923.7454688763
810883.2988369202
716595.0118640944
583680.0416535247
100000.0009636197
99999.99826886982
100000.00286968698
99999.99498961988
100000.00850701786
99999.98525651617
100000.02534509102
99999.9560186355
100000.07626773391
99999.86699400717
100000.2324427242
99999.59203341481
100000.71800022283
99998.73269577303
100002.23935917618
99996.04697195465
100006.93906922275
99987.9806185291
100020.22862900878
99967.91717290829
100044.10929057412
99962.45848477454
99936.29113986746
100509.63809595222
97865.6150201343
107712.7747620549
76473.34586214714
294835.73197962076
743661.3903729302
966344.0862183407
986614.5778442753
990262.0286350062
993289.1926060389
995017.9019355847
995387.1929647226
994286.474903073
991503.2049315813
986831.1051077305
979823.8364822713
970120.8761002822
956732.7370418309
939071.4857037276
914776.023137969
883038.1040700788
837821.4889034963
778857.5734671942
690260.8572435495
579470.1013668508
100000.00071179627
99999.9988033957
100000.00197812794
99999.99668147793
100000.00549406176
99999.99082260611
100000.015201985
99999.97472488701
100000.04178352978
99999.93094407408
100000.11348732925
99999.81432640152
100000.30099296664
99999.5181806698
100000.75442353763
99998.86317946427
100001.58582067315
99998.16599072225
100000.8736368493
100004.52743155198
99975.57908445079
100088.33324931088
99713.9756356338
100876.6171296361
97371.84633701349
108020.59994859541
77837.62680318404
205062.65821395765
636154.7764613685
932356.0031490182
977642.2810140968
980495.1912215196
982819.6284296649
983734.267035436
983188.7753064446
981058.5382723388
977118.2502920487
971143.0819133716
962671.1047428028
951330.7043103818
936139.5246476402
916565.1448576022
890384.0935168845
857151.8012003936
811535.435226133
754729.7025601675
673898.7932694315
580164.566729981
100000.00042062337
99999.99938777118
100000.00099896846
99999.99849654698
100000.0022927399
99999.9966455257
100000.0047254873
99999.99378163258
100000.00711837944
99999.99436737198
99999.99710314904
100000.02882584918
99999.9043316198
100000.254069154
99999.3863737625
100001.40781725432
99996.86353033067
100006.86971369536
99985.07056881173
100032.39335914399
99929.3037740712
100155.73845077261
99650.56768175062
100798.85766221605
98129.10221495651
104597.08565865082
89041.33561871642
134567.88647103653
514316.33306744864
879480.3642002572
966911.1436839716
970847.5425768243
972375.9627491375
972490.3485781183
971065.1689735899