# vtk DataFile Version 2.0
JuliaCFD
ASCII
DATASET UNSTRUCTURED_GRID

POINTS 32898 float
0.0 0.0 -0.05
0.0125 0.0 -0.05
0.025 0.0 -0.05
0.0375 0.0 -0.05
0.05 0.0 -0.05
0.0625 0.0 -0.05
0.075 0.0 -0.05
0.0875 0.0 -0.05
0.1 0.0 -0.05
0.1125 0.0 -0.05
0.125 0.0 -0.05
0.1375 0.0 -0.05
0.15 0.0 -0.05
0.1625 0.0 -0.05
0.175 0.0 -0.05
0.1875 0.0 -0.05
0.2 0.0 -0.05
0.2125 0.0 -0.05
0.225 0.0 -0.05
0.2375 0.0 -0.05
0.25 0.0 -0.05
0.2625 0.0 -0.05
0.275 0.0 -0.05
0.2875 0.0 -0.05
0.3 0.0 -0.05
0.3125 0.0 -0.05
0.325 0.0 -0.05
0.3375 0.0 -0.05
0.35 0.0 -0.05
0.3625 0.0 -0.05
0.375 0.0 -0.05
0.3875 0.0 -0.05
0.4 0.0 -0.05
0.4125 0.0 -0.05
0.425 0.0 -0.05
0.4375 0.0 -0.05
0.45 0.0 -0.05
0.4625 0.0 -0.05
0.475 0.0 -0.05
0.4875 0.0 -0.05
0.5 0.0 -0.05
0.5125 0.0 -0.05
0.525 0.0 -0.05
0.5375 0.0 -0.05
0.55 0.0 -0.05
0.5625 0.0 -0.05
0.575 0.0 -0.05
0.5875 0.0 -0.05
0.6 0.0 -0.05
0.0 0.0125 -0.05
0.0125 0.0125 -0.05
0.025 0.0125 -0.05
0.0375 0.0125 -0.05
0.05 0.0125 -0.05
0.0625 0.0125 -0.05
0.075 0.0125 -0.05
0.0875 0.0125 -0.05
0.1 0.0125 -0.05
0.1125 0.0125 -0.05
0.125 0.0125 -0.05
0.1375 0.0125 -0.05
0.15 0.0125 -0.05
0.1625 0.0125 -0.05
0.175 0.0125 -0.05
0.1875 0.0125 -0.05
0.2 0.0125 -0.05
0.2125 0.0125 -0.05
0.225 0.0125 -0.05
0.2375 0.0125 -0.05
0.25 0.0125 -0.05
0.2625 0.0125 -0.05
0.275 0.0125 -0.05
0.2875 0.0125 -0.05
0.3 0.0125 -0.05
0.3125 0.0125 -0.05
0.325 0.0125 -0.05
0.3375 0.0125 -0.05
0.35 0.0125 -0.05
0.3625 0.0125 -0.05
0.375 0.0125 -0.05
0.3875 0.0125 -0.05
0.4 0.0125 -0.05
0.4125 0.0125 -0.05
0.425 0.0125 -0.05
0.4375 0.0125 -0.05
0.45 0.0125 -0.05
0.4625 0.0125 -0.05
0.475 0.0125 -0.05
0.4875 0.0125 -0.05
0.5 0.0125 -0.05
0.5125 0.0125 -0.05
0.525 0.0125 -0.05
0.5375 0.0125 -0.05
0.55 0.0125 -0.05
0.5625 0.0125 -0.05
0.575 0.0125 -0.05
0.5875 0.0125 -0.05
0.6 0.0125 -0.05
0.0 0.025 -0.05
0.0125 0.025 -0.05
0.025 0.025 -0.05
0.0375 0.025 -0.05
0.05 0.025 -0.05
0.0625 0.025 -0.05
0.075 0.025 -0.05
0.0875 0.025 -0.05
0.1 0.025 -0.05
0.1125 0.025 -0.05
0.125 0.025 -0.05
0.1375 0.025 -0.05
0.15 0.025 -0.05
0.1625 0.025 -0.05
0.175 0.025 -0.05
0.1875 0.025 -0.05
0.2 0.025 -0.05
0.2125 0.025 -0.05
0.225 0.025 -0.05
0.2375 0.025 -0.05
0.25 0.025 -0.05
0.2625 0.025 -0.05
0.275 0.025 -0.05
0.2875 0.025 -0.05
0.3 0.025 -0.05
0.3125 0.025 -0.05
0.325 0.025 -0.05
0.3375 0.025 -0.05
0.35 0.025 -0.05
0.3625 0.025 -0.05
0.375 0.025 -0.05
0.3875 0.025 -0.05
0.4 0.025 -0.05
0.4125 0.025 -0.05
0.425 0.025 -0.05
0.4375 0.025 -0.05
0.45 0.025 -0.05
0.4625 0.025 -0.05
0.475 0.025 -0.05
0.4875 0.025 -0.05
0.5 0.025 -0.05
0.5125 0.025 -0.05
0.525 0.025 -0.05
0.5375 0.025 -0.05
0.55 0.025 -0.05
0.5625 0.025 -0.05
0.575 0.025 -0.05
0.5875 0.025 -0.05
0.6 0.025 -0.05
0.0 0.0375 -0.05
0.0125 0.0375 -0.05
0.025 0.0375 -0.05
0.0375 0.0375 -0.05
0.05 0.0375 -0.05
0.0625 0.0375 -0.05
0.075 0.0375 -0.05
0.0875 0.0375 -0.05
0.1 0.0375 -0.05
0.1125 0.0375 -0.05
0.125 0.0375 -0.05
0.1375 0.0375 -0.05
0.15 0.0375 -0.05
0.1625 0.0375 -0.05
0.175 0.0375 -0.05
0.1875 0.0375 -0.05
0.2 0.0375 -0.05
0.2125 0.0375 -0.05
0.225 0.0375 -0.05
0.2375 0.0375 -0.05
0.25 0.0375 -0.05
0.2625 0.0375 -0.05
0.275 0.0375 -0.05
0.2875 0.0375 -0.05
0.3 0.0375 -0.05
0.3125 0.0375 -0.05
0.325 0.0375 -0.05
0.3375 0.0375 -0.05
0.35 0.0375 -0.05
0.3625 0.0375 -0.05
0.375 0.0375 -0.05
0.3875 0.0375 -0.05
0.4 0.0375 -0.05
0.4125 0.0375 -0.05
0.425 0.0375 -0.05
0.4375 0.0375 -0.05
0.45 0.0375 -0.05
0.4625 0.0375 -0.05
0.475 0.0375 -0.05
0.4875 0.0375 -0.05
0.5 0.0375 -0.05
0.5125 0.0375 -0.05
0.525 0.0375 -0.05
0.5375 0.0375 -0.05
0.55 0.0375 -0.05
0.5625 0.0375 -0.05
0.575 0.0375 -0.05
0.5875 0.0375 -0.05
0.6 0.0375 -0.05
0.0 0.05 -0.05
0.0125 0.05 -0.05
0.025 0.05 -0.05
0.0375 0.05 -0.05
0.05 0.05 -0.05
0.0625 0.05 -0.05
0.075 0.05 -0.05
0.0875 0.05 -0.05
0.1 0.05 -0.05
0.1125 0.05 -0.05
0.125 0.05 -0.05
0.1375 0.05 -0.05
0.15 0.05 -0.05
0.1625 0.05 -0.05
0.175 0.05 -0.05
0.1875 0.05 -0.05
0.2 0.05 -0.05
0.2125 0.05 -0.05
0.225 0.05 -0.05
0.2375 0.05 -0.05
0.25 0.05 -0.05
0.2625 0.05 -0.05
0.275 0.05 -0.05
0.2875 0.05 -0.05
0.3 0.05 -0.05
0.3125 0.05 -0.05
0.325 0.05 -0.05
0.3375 0.05 -0.05
0.35 0.05 -0.05
0.3625 0.05 -0.05
0.375 0.05 -0.05
0.3875 0.05 -0.05
0.4 0.05 -0.05
0.4125 0.05 -0.05
0.425 0.05 -0.05
0.4375 0.05 -0.05
0.45 0.05 -0.05
0.4625 0.05 -0.05
0.475 0.05 -0.05
0.4875 0.05 -0.05
0.5 0.05 -0.05
0.5125 0.05 -0.05
0.525 0.05 -0.05
0.5375 0.05 -0.05
0.55 0.05 -0.05
0.5625 0.05 -0.05
0.575 0.05 -0.05
0.5875 0.05 -0.05
0.6 0.05 -0.05
0.0 0.0625 -0.05
0.0125 0.0625 -0.05
0.025 0.0625 -0.05
0.0375 0.0625 -0.05
0.05 0.0625 -0.05
0.0625 0.0625 -0.05
0.075 0.0625 -0.05
0.0875 0.0625 -0.05
0.1 0.0625 -0.05
0.1125 0.0625 -0.05
0.125 0.0625 -0.05
0.1375 0.0625 -0.05
0.15 0.0625 -0.05
0.1625 0.0625 -0.05
0.175 0.0625 -0.05
0.1875 0.0625 -0.05
0.2 0.0625 -0.05
0.2125 0.0625 -0.05
0.225 0.0625 -0.05
0.2375 0.0625 -0.05
0.25 0.0625 -0.05
0.2625 0.0625 -0.05
0.275 0.0625 -0.05
0.2875 0.0625 -0.05
0.3 0.0625 -0.05
0.3125 0.0625 -0.05
0.325 0.0625 -0.05
0.3375 0.0625 -0.05
0.35 0.0625 -0.05
0.3625 0.0625 -0.05
0.375 0.0625 -0.05
0.3875 0.0625 -0.05
0.4 0.0625 -0.05
0.4125 0.0625 -0.05
0.425 0.0625 -0.05
0.4375 0.0625 -0.05
0.45 0.0625 -0.05
0.4625 0.0625 -0.05
0.475 0.0625 -0.05
0.4875 0.0625 -0.05
0.5 0.0625 -0.05
0.5125 0.0625 -0.05
0.525 0.0625 -0.05
0.5375 0.0625 -0.05
0.55 0.0625 -0.05
0.5625 0.0625 -0.05
0.575 0.0625 -0.05
0.5875 0.0625 -0.05
0.6 0.0625 -0.05
0.0 0.075 -0.05
0.0125 0.075 -0.05
0.025 0.075 -0.05
0.0375 0.075 -0.05
0.05 0.075 -0.05
0.0625 0.075 -0.05
0.075 0.075 -0.05
0.0875 0.075 -0.05
0.1 0.075 -0.05
0.1125 0.075 -0.05
0.125 0.075 -0.05
0.1375 0.075 -0.05
0.15 0.075 -0.05
0.1625 0.075 -0.05
0.175 0.075 -0.05
0.1875 0.075 -0.05
0.2 0.075 -0.05
0.2125 0.075 -0.05
0.225 0.075 -0.05
0.2375 0.075 -0.05
0.25 0.075 -0.05
0.2625 0.075 -0.05
0.275 0.075 -0.05
0.2875 0.075 -0.05
0.3 0.075 -0.05
0.3125 0.075 -0.05
0.325 0.075 -0.05
0.3375 0.075 -0.05
0.35 0.075 -0.05
0.3625 0.075 -0.05
0.375 0.075 -0.05
0.3875 0.075 -0.05
0.4 0.075 -0.05
0.4125 0.075 -0.05
0.425 0.075 -0.05
0.4375 0.075 -0.05
0.45 0.075 -0.05
0.4625 0.075 -0.05
0.475 0.075 -0.05
0.4875 0.075 -0.05
0.5 0.075 -0.05
0.5125 0.075 -0.05
0.525 0.075 -0.05
0.5375 0.075 -0.05
0.55 0.075 -0.05
0.5625 0.075 -0.05
0.575 0.075 -0.05
0.5875 0.075 -0.05
0.6 0.075 -0.05
0.0 0.0875 -0.05
0.0125 0.0875 -0.05
0.025 0.0875 -0.05
0.0375 0.0875 -0.05
0.05 0.0875 -0.05
0.0625 0.0875 -0.05
0.075 0.0875 -0.05
0.0875 0.0875 -0.05
0.1 0.0875 -0.05
0.1125 0.0875 -0.05
0.125 0.0875 -0.05
0.1375 0.0875 -0.05
0.15 0.0875 -0.05
0.1625 0.0875 -0.05
0.175 0.0875 -0.05
0.1875 0.0875 -0.05
0.2 0.0875 -0.05
0.2125 0.0875 -0.05
0.225 0.0875 -0.05
0.2375 0.0875 -0.05
0.25 0.0875 -0.05
0.2625 0.0875 -0.05
0.275 0.0875 -0.05
0.2875 0.0875 -0.05
0.3 0.0875 -0.05
0.3125 0.0875 -0.05
0.325 0.0875 -0.05
0.3375 0.0875 -0.05
0.35 0.0875 -0.05
0.3625 0.0875 -0.05
0.375 0.0875 -0.05
0.3875 0.0875 -0.05
0.4 0.0875 -0.05
0.4125 0.0875 -0.05
0.425 0.0875 -0.05
0.4375 0.0875 -0.05
0.45 0.0875 -0.05
0.4625 0.0875 -0.05
0.475 0.0875 -0.05
0.4875 0.0875 -0.05
0.5 0.0875 -0.05
0.5125 0.0875 -0.05
0.525 0.0875 -0.05
0.5375 0.0875 -0.05
0.55 0.0875 -0.05
0.5625 0.0875 -0.05
0.575 0.0875 -0.05
0.5875 0.0875 -0.05
0.6 0.0875 -0.05
0.0 0.1 -0.05
0.0125 0.1 -0.05
0.025 0.1 -0.05
0.0375 0.1 -0.05
0.05 0.1 -0.05
0.0625 0.1 -0.05
0.075 0.1 -0.05
0.0875 0.1 -0.05
0.1 0.1 -0.05
0.1125 0.1 -0.05
0.125 0.1 -0.05
0.1375 0.1 -0.05
0.15 0.1 -0.05
0.1625 0.1 -0.05
0.175 0.1 -0.05
0.1875 0.1 -0.05
0.2 0.1 -0.05
0.2125 0.1 -0.05
0.225 0.1 -0.05
0.2375 0.1 -0.05
0.25 0.1 -0.05
0.2625 0.1 -0.05
0.275 0.1 -0.05
0.2875 0.1 -0.05
0.3 0.1 -0.05
0.3125 0.1 -0.05
0.325 0.1 -0.05
0.3375 0.1 -0.05
0.35 0.1 -0.05
0.3625 0.1 -0.05
0.375 0.1 -0.05
0.3875 0.1 -0.05
0.4 0.1 -0.05
0.4125 0.1 -0.05
0.425 0.1 -0.05
0.4375 0.1 -0.05
0.45 0.1 -0.05
0.4625 0.1 -0.05
0.475 0.1 -0.05
0.4875 0.1 -0.05
0.5 0.1 -0.05
0.5125 0.1 -0.05
0.525 0.1 -0.05
0.5375 0.1 -0.05
0.55 0.1 -0.05
0.5625 0.1 -0.05
0.575 0.1 -0.05
0.5875 0.1 -0.05
0.6 0.1 -0.05
0.0 0.1125 -0.05
0.0125 0.1125 -0.05
0.025 0.1125 -0.05
0.0375 0.1125 -0.05
0.05 0.1125 -0.05
0.0625 0.1125 -0.05
0.075 0.1125 -0.05
0.0875 0.1125 -0.05
0.1 0.1125 -0.05
0.1125 0.1125 -0.05
0.125 0.1125 -0.05
0.1375 0.1125 -0.05
0.15 0.1125 -0.05
0.1625 0.1125 -0.05
0.175 0.1125 -0.05
0.1875 0.1125 -0.05
0.2 0.1125 -0.05
0.2125 0.1125 -0.05
0.225 0.1125 -0.05
0.2375 0.1125 -0.05
0.25 0.1125 -0.05
0.2625 0.1125 -0.05
0.275 0.1125 -0.05
0.2875 0.1125 -0.05
0.3 0.1125 -0.05
0.3125 0.1125 -0.05
0.325 0.1125 -0.05
0.3375 0.1125 -0.05
0.35 0.1125 -0.05
0.3625 0.1125 -0.05
0.375 0.1125 -0.05
0.3875 0.1125 -0.05
0.4 0.1125 -0.05
0.4125 0.1125 -0.05
0.425 0.1125 -0.05
0.4375 0.1125 -0.05
0.45 0.1125 -0.05
0.4625 0.1125 -0.05
0.475 0.1125 -0.05
0.4875 0.1125 -0.05
0.5 0.1125 -0.05
0.5125 0.1125 -0.05
0.525 0.1125 -0.05
0.5375 0.1125 -0.05
0.55 0.1125 -0.05
0.5625 0.1125 -0.05
0.575 0.1125 -0.05
0.5875 0.1125 -0.05
0.6 0.1125 -0.05
0.0 0.125 -0.05
0.0125 0.125 -0.05
0.025 0.125 -0.05
0.0375 0.125 -0.05
0.05 0.125 -0.05
0.0625 0.125 -0.05
0.075 0.125 -0.05
0.0875 0.125 -0.05
0.1 0.125 -0.05
0.1125 0.125 -0.05
0.125 0.125 -0.05
0.1375 0.125 -0.05
0.15 0.125 -0.05
0.1625 0.125 -0.05
0.175 0.125 -0.05
0.1875 0.125 -0.05
0.2 0.125 -0.05
0.2125 0.125 -0.05
0.225 0.125 -0.05
0.2375 0.125 -0.05
0.25 0.125 -0.05
0.2625 0.125 -0.05
0.275 0.125 -0.05
0.2875 0.125 -0.05
0.3 0.125 -0.05
0.3125 0.125 -0.05
0.325 0.125 -0.05
0.3375 0.125 -0.05
0.35 0.125 -0.05
0.3625 0.125 -0.05
0.375 0.125 -0.05
0.3875 0.125 -0.05
0.4 0.125 -0.05
0.4125 0.125 -0.05
0.425 0.125 -0.05
0.4375 0.125 -0.05
0.45 0.125 -0.05
0.4625 0.125 -0.05
0.475 0.125 -0.05
0.4875 0.125 -0.05
0.5 0.125 -0.05
0.5125 0.125 -0.05
0.525 0.125 -0.05
0.5375 0.125 -0.05
0.55 0.125 -0.05
0.5625 0.125 -0.05
0.575 0.125 -0.05
0.5875 0.125 -0.05
0.6 0.125 -0.05
0.0 0.1375 -0.05
0.0125 0.1375 -0.05
0.025 0.1375 -0.05
0.0375 0.1375 -0.05
0.05 0.1375 -0.05
0.0625 0.1375 -0.05
0.075 0.1375 -0.05
0.0875 0.1375 -0.05
[...]
CELL_DATA 16128
SCALARS P float 1
LOOKUP_TABLE default
99999.9801808417
100000.03288479487
99999.94644522358
100000.08835436817
99999.8555361587
100000.23759152569
99999.61085257598
100000.63884656772
99998.95337095541
100001.71546110138
99997.19269485993
100004.5892347831
99992.51659521012
100012.1576673869
99980.37330671393
100031.32936438384
99950.96694968878
100073.79468013906
99897.46285224792
100114.89950546231
99962.80226962108
99617.66970549515
101906.8221955249
93073.18449952174
123717.84627620727
497690.224798095
943685.8610550403
1.0609222867835644e6
1.057134764098242e6
1.0725987064380893e6
1.0830843855666695e6
1.094291842775114e6
1.104732457490073e6
1.114812780811271e6
1.1243951874158864e6
1.1335367221244886e6
1.1421707289440688e6
1.150359291707782e6
1.1579465508415771e6
1.1651268578582907e6
1.171470435267069e6
1.1776149841028717e6
1.1823237608115308e6
1.1876227984429086e6
1.1898266475045555e6
1.195252412783974e6
1.1926929389855166e6
1.2016777607326873e6
99999.98040256239
100000.03243236826
99999.94719203409
100000.08693858831
99999.85800924136
100000.2330405599
99999.61897260952
100000.62413305618
99998.97964931838
100001.66858450006
99997.27522140062
100004.44574619304
99992.76090978555
100011.75325235796
99981.01397657857
100030.38422126485
99952.17847626455
100072.74041975476
99896.75434990037
100122.0623503168
99936.17567959047
99696.00077797243
101690.9237782945
93601.00053191943
122216.81031083305
494366.89614867105
943984.1718180487
1.0652618566147534e6
1.0620366871554838e6
1.0779961721463914e6
1.0887014189497463e6
1.1000450575292557e6
1.11058220553382e6
1.1207488522121718e6
1.1304199773392573e6
1.1396568508118158e6
1.1483931787484428e6
1.156689445499023e6
1.1643864782302359e6
1.1716755735381194e6
1.178121117794484e6
1.1843586760912018e6
1.1891405261500296e6
1.1944991926079972e6
1.1967192721233969e6
1.2021699147015794e6
1.1995192372837923e6
1.2086027848929057e6
99999.98114540918
100000.03121144933
99999.94916735216
100000.08370756677
99999.86320055912
100000.22465815731
99999.6323002853
100000.60301068536
99999.01258758179
100001.6178758117
99997.35144316465
100004.33460921881
99992.91476313221
100011.55889540723
99981.21113653816
100030.32095878905
99951.69654938778
100074.89025025153
99889.83695795298
100141.99793997385
99879.93144353808
99851.19227768554
101246.69306296953
94826.55599258206
118078.90148875598
482613.80030418886
934653.1139727419
1.061943439418414e6
1.058219358629865e6
1.073856047532235e6
1.0843471065281786e6
1.0954936769780417e6
1.1058597629083525e6
1.1158568153939808e6
1.125358002064402e6
1.1344204298449156e6
1.1429793292855362e6
1.1510957182027365e6
1.1586152056915513e6
1.165729432479987e6
1.172012031380803e6
1.1780946366331107e6
1.1827469658165318e6
1.1879884890824948e6
1.1901279052178105e6
1.1955294219148995e6
1.1928022176321284e6
1.2020430786414698e6
99999.9822051628
100000.02945966896
99999.95200089838
100000.07905166413
99999.87071283066
100000.21244260068
99999.65191078141
100000.57151430048
99999.06263637984
100001.53880173036
99997.47477248465
100004.14498587657
99993.19936137594
100011.1476591027
99981.76280099453
100029.69747577037
99952.03190679481
100076.0695013669
99883.26485684564
100165.22917803719
99806.42610263826
100069.50117465838
100597.98377572038
96678.65447354835
112151.8988191998
465779.64843509207
923498.7121832136
1.0614778509616135e6
1.0578194083089456e6
1.0735471869130386e6
1.0841403061268406e6
1.0953117252216008e6
1.1056904879258168e6
1.1156822813951347e6
1.125175674272394e6
1.1342310899205783e6
1.1427892054815548e6
1.1509123209079548e6
1.1584496255360937e6
1.165590608018791e6
1.1719134041768275e6
1.1780415865464883e6
1.1827513846243953e6
1.1880488021174553e6
1.1902370956230818e6
1.195708767266618e6
1.192919234057844e6
1.2024124307526033e6
99999.98354996309
100000.0272130726
99999.95564344678
100000.07301845767
99999.88052488009
100000.19632277304
99999.6781240489
100000.52876108495
99999.13190282701
100001.42676784993
99997.65472650272
100003.8579699654
99993.65111534289
100010.45134242834
99982.79397452323
100028.28893360317
99953.58645646779
100075.557307205
99878.38679569488
100189.08010726908
99721.72950344559
100336.64458363231
99786.78161561514
99079.98510092995
104826.97511287848
442921.1740774879
906785.5033624693
1.058971206860306e6
1.0552895007240875e6
1.0706524473615307e6
1.0810971112534662e6
1.0920531961468866e6
1.1022434794479262e6
1.1120390392082182e6
1.121338021673826e6
1.1301967095920788e6
1.1385586916322045e6
1.1464857342913668e6
1.1538316596836934e6
1.1607837837909672e6
1.1669293791424667e6
1.1728839288761956e6
1.177440847650397e6
1.1825916262961e6
1.1846529674078599e6
1.1900505220776678e6
1.1870836647274392e6
1.1968384108358258e6
99999.98512627422
100000.0245500392
99999.95997312073
100000.06578950741
99999.89237455401
100000.17666912927
99999.71045426381
100000.47534325914
99999.21980409934
100001.28205926377
99997.89206251454
100003.47014159715
99994.27970287715
100009.44628176003
99984.35968422277
100025.96960786385
99956.65241735148
100072.66303654014
99876.90433721487
100209.3047354109
99636.93182251677
100624.30809115726
98892.19852566202
101842.86646893522
96845.54077940487
414839.895560121
885232.1955591933
1.056084012061616e6
1.053154437880256e6
1.0681430352710062e6
1.0785841321628161e6
1.0894050323477958e6
1.0994816632568869e6
1.1091435303777796e6
1.1183073466505613e6
1.1270285123783157e6
1.1352571911089602e6
1.143056924679328e6
1.150288396522333e6
1.157137988861088e6
1.1632033504072095e6
1.1690916967758986e6
1.173611316352838e6
1.1787381132101112e6
1.1807855689813793e6
1.1862277402509283e6
1.183133561024883e6
1.1932643997674284e6
99999.9868579388
100000.02159988877
99999.96478000244
100000.05771787846
99999.9056840718
100000.15444425304
99999.74731957272
100000.41387577918
99999.32205355306
100001.11168125273
99998.17547073775
100002.99944737267
99995.05758713937
100008.17217818597
99986.41024197044
100022.77920794826
99961.27913079443
100067.00506325158
99880.26448203089
100221.41111720995
99565.24012233103
100895.85649992865
98016.50695775606
104693.63697658213
88991.70822055687
381878.12960298994
857706.2621100413
1.0515502079042583e6
1.0503958004618955e6
1.0646474151006613e6
1.075014709140474e6
1.0855775840622666e6
1.095435197650387e6
1.1048559901633763e6
1.1137760607950245e6
1.1222461430065192e6
1.1302209760718294e6
1.1377635252815327e6
1.1447395993015938e6
1.1513323262342417e6
1.1571485880149985e6
1.1627859511386438e6
1.167069228224492e6
1.1719648197953622e6
1.1737880341459766e6
1.1790993325494921e6
1.175698620423369e6
1.1862243836697056e6
99999.98865200135
100000.01853348046
99999.96978179597
100000.0493019524
99999.9196030389
100000.1311315407
99999.78615691364
100000.34881535155
99999.43092935614
100000.929004823
99998.48191866137
100002.48527120112
99995.91831246577
100006.73878854311
99988.77110817522
100018.97673737672
99967.13861139062
100058.82607319664
99888.9521536832
100222.12736433592
99519.12784096396
101110.67931946159
97279.83578126917
107251.67491151496
82179.10740646865
344817.68010009016
823721.0204073825
1.0450917455548316e6
1.0475588382654464e6
1.060759019926495e6
1.0711166969223637e6
1.0814106782099835e6
1.0910468186238133e6
1.1002170411778218e6
1.1088813217848192e6
1.1170865194324187e6
1.124794095454549e6
1.132068999004104e6
1.1387858762200696e6
1.1451292979527274e6
1.1507215014935238e6
1.156156745631918e6
1.160281610717383e6
1.165055913697882e6
1.1667855215422474e6
1.1721189163681646e6
1.1685042677223126e6
1.1795853837625603e6
99999.99041254836
100000.01553499729
99999.97467123134
100000.04109725342
99999.93316304052
100000.10845774483
99999.8239091221
100000.28560719914
99999.53674352083
100000.75127590235
99998.7807668327
100001.98185559442
99996.76646940607
100005.31208985134
99991.1587894206
100015.03100914697
99973.50088790919
100049.12344080997
99902.06380243404
100210.545686197
99507.40060543088
101231.07678936818
96804.39553273676
109064.74843803883
77342.29757212439
304621.2082425401
782542.9165227689
1.0357312460354718e6
1.0445322167817034e6
1.0562186226826196e6
1.0665712313992206e6
1.0765217392113318e6
1.0858699269674409e6
1.0947160392749228e6
1.103044690037477e6
1.11089634867881e6
1.1182361948498143e6
1.125127139538636e6
1.1314468467100768e6
1.1373742775560126e6
1.1425367583640332e6
1.1475173154676685e6
1.1511712801496764e6
1.1554617757063622e6
1.1566744613413922e6
1.1616419264438956e6
1.1573838940177385e6
1.1690040329125293e6
99999.99205870277
100000.01276293931
99999.97918232039
100000.03358982065
99999.9455055147
100000.08797359948
99999.8577857026
100000.22930607968
99999.63032572318
100000.59516919372
99999.04167245292
100001.54437515528
99997.50198115774
100004.07249463945
99993.25138044961
100011.50488284705
99979.41444231481
100039.39460073778
99917.5728701206
100188.16702739472
99533.59454569848
101229.79500391544
96691.17157529644
109699.74339143212
75308.82336159374
262573.4683383971
733662.1565203302
1.0224121186418916e6
1.0414384731436594e6
1.0511483003690187e6
1.0615247291695129e6
1.0710906764528505e6
1.0801122311408734e6
1.0885897935889785e6
1.0965331738994361e6
1.1039773679832506e6
1.1108928563808096e6
1.1173440962473152e6
1.123218096810317e6
1.1286983038308376e6
1.1334327821887438e6
1.1380116079177095e6
1.1413240115698862e6
1.1453453866951622e6
1.146354813321189e6
1.1513141511050514e6
1.146745916715315e6
1.1591998033380378e6
99999.9935405076
100000.01031358061
99999.9831533013
100000.02707260667
99999.95611004363
100000.07062210498
99999.88606972202
100000.18306611593
99999.70584036154
100000.4715483756
99999.24430600065
100001.2110082998
99998.05301072518
100003.15502157688
99994.79605016999
100008.86645211952
99984.02656921466
100031.13136372821
99933.01200198734
100158.41909604243
99594.5417790269
101101.15509262284
96976.37710736782
109004.6333919994
76540.62669524275
220208.57795813962
676789.9074932217
1.0037276738154076e6
1.038206319116371e6
1.0455428354406367e6
1.0559271933463346e6
1.0650563804572616e6
1.0736905128500117e6
1.081731728616895e6
1.0892103870237803e6
1.0961533133078972e6
1.1025302121350511e6
1.1083987746807006e6
1.113641206958774e6
1.1184267505961698e6
1.1223922700111065e6
1.1261042883415534e6
1.1284275252456798e6
1.1313498075266543e6
1.1310626796090838e6
1.13490946955324e6
1.128699316995392e6
1.1417520145250922e6
99999.99484637218
100000.00820158656
99999.98656134414
100000.02157408209
99999.96493373919
100000.05646294118
99999.90866045593
100000.14707601427
99999.76287386686
100000.38139122892
99999.38627888523
100000.98759348835
99998.40544488902
100002.59318600944
99995.71431643044
100007.29592416233
99986.9266324155
100025.24753798211
99946.33890909418
100125.70173517872
99680.52247422378
100866.0012952273
97613.9730972857
107089.96091962948
81012.79577200966
179364.3515382451
612083.4711636119
978025.9067652654
1.0346296296370903e6
1.0394932126958328e6
1.049813327477486e6
1.0584706273134437e6
1.0666609896382631e6
1.074206559427758e6
1.0811518642047178e6
1.087517090999271e6
1.093272320932593e6
1.0984732556081433e6
1.1030080012934448e6
1.1070501967030636e6
1.110262033315427e6
1.1132295880198833e6
1.1148806290810201e6
1.1172391760758809e6
1.1165588860581014e6
1.120269700790558e6
1.1137155402559533e6
1.127882538043233e6
99999.99599797923
100000.00636812272
99999.98951048669
100000.01687659234
99999.97238850022
100000.04469558634
99999.92707281887
100000.11847801419
99999.80675203426
100000.31486766822
99999.48551628788
100000.84192376764
99998.61602478517
100002.28981300337
99996.16526580266
100006.55259762134
99988.41975090219
100021.53809701344
99956.97882270897
100093.54199830322
99778.41551433867
100567.50671082901
98482.54116665438
104366.27180072381
88040.06001964376
142199.6711377573
540330.4446450262
943420.127784804
1.0301769695057833e6
1.0331073281488352e6
1.0431841712234827e6
1.051344667839068e6
1.0590265090670013e6
1.0660082251936155e6
1.072335524912313e6
1.0780181737219188e6
1.0830162420184498e6
1.0873682080260261e6
1.0909399793040666e6
1.093868061611045e6
1.0957608486882662e6
1.0971306651384456e6
1.0967704557376709e6
1.096659386326792e6
1.092695737786959e6
1.093034807458353e6
1.0814704879455871e6
1.0955458893203314e6
99999.99703335743
100000.00471711709
99999.99217068557
100000.01263229792
99999.97913581337
100000.03403294361
99999.94377316434
100000.09254828037
99999.84647473112
100000.25490947303
99999.57421728283
100000.71369280553
99998.79665583653
100002.04012799995
99996.51590749068
100006.00113724441
99989.54118532545
100018.51887714691
99966.40983504952
100062.96596320339
99875.78870876245
100260.21279406663
99409.14058043226
101456.7458412549
96198.78591992523
111195.32082482163
463177.8226904514
897900.5178991171
1.0238228786008282e6
1.0265306114116644e6
1.0360525402902695e6
1.0437126778571837e6
1.050825163574325e6
1.0571820011591653e6
1.062817274354228e6
1.0677315646116165e6
1.0718752741168274e6
1.0752741706125278e6
1.0777870387280288e6
1.079540757990463e6
1.0801626444904292e6
1.080178684573095e6
1.0785048423737267e6
1.0771213114626408e6
1.0723623295864672e6
1.0718077320500303e6
1.0602437417018046e6
1.0735611309358475e6
99999.99798384716
100000.00316769496
99999.99468718538
100000.00854083094
99999.98575786836
100000.0233234826
99999.96101350882
100000.06488082715
99999.89063373701
100000.18480419448
99999.68478029549
100000.54037683152
99999.06721566617
100001.61655387412
99997.19177031108
100004.86587434089
99991.64681884166
100014.01063222282
99977.55936962069
100032.20186562238
99965.2330661721
99991.61548167974
100212.11807779572
99013.63134897061
103519.08229571332
88917.06957355767
383335.80985396536
839602.7998726501
1.0138491482901558e6
1.0198970431844465e6
1.0284280886902779e6
1.0356038783691485e6
1.0420904047351266e6
1.0477618762351444e6
1.0526261728621717e6
1.0566702046879635e6
1.0598220662837862e6
1.0620741247231953e6
1.0632362777684808e6
1.0633562404524267e6
1.061929922078813e6
1.0592761219577298e6
1.0539151467038624e6
1.0473983944987444e6
1.0347251173687759e6
1.024112122250904e6
994733.6776899633
1.0012588201438226e6
99999.9988546732
100000.00170094636
99999.99709789507
100000.0045156926
99999.99244008148
100000.01217067856
99999.9796326044
100000.03371640111
99999.94289789647
100000.09694995185
99999.83286997302
100000.2899171611
99999.49280785338
100000.88834123856
99998.45153935993
100002.64734810828
99995.66616918467
100006.403097628
99992.86143302507
99998.9582922546
100043.60041410122
99792.44154989859
100752.39161124013
97512.538544448
108072.81158035864
77187.63210226083
304506.7735690421
767364.6660487113
997798.767415818
1.013283006855567e6
1.0203491502514052e6
1.0270633685497824e6
1.0328785790657452e6
1.0378135710301582e6
1.0418425543126361e6
1.0449384576965123e6
1.0470064665401573e6
1.0480067221629343e6
1.0477141855222059e6
1.046121977532036e6
1.0427001581250149e6
1.0376904333371201e6
1.029760213423961e6
1.0202667916884195e6
1.0055012774959764e6
990642.7182392703
962498.2567259229
929406.8313152241
99999.99961820117
100000.00037804738
99999.99929915596
100000.00075658657
99999.99882277497
100000.00123827218
99999.99842562695
100000.00123827362
99999.9993415037
99999.99834445085
100000.00613348058
99999.98383199668
100000.03651791728
99999.91759815236
100000.19306397361
99999.5097010895
100001.34014317037
99996.11364832624
100011.57193392488
99964.91664567485
100105.8648698013
99679.19797117486
100963.90578782908
97137.16273656057
108820.2914112635
75995.73193785748
230915.66529147662
681353.7355184401
972626.8509205088
1.0066078352865102e6
1.0119177552300857e6
1.0181558757858681e6
1.023261707044079e6
1.0274131752251736e6
1.0305488129019621e6
1.0326231309796884e6
1.033509531747146e6
1.0331208641743339e6
1.0311627133175363e6
1.027509250947274e6
1.0214465847421268e6
1.012823941622249e6
999650.0563417561
981681.2508529532
952185.7742638574
909299.044996001
823738.0251099268
672242.5900887405
100000.00022437799
99999.99931752234
100000.00108317324
99999.99767859609
100000.00412435153
99999.99203119287
100000.01452256831
99999.97293012006
100000.04950367968
99999.90891907855
100000.16664824296
99999.69410738575
100000.56212533153
99998.96088179073
100001.93656006275
99996.34054436974
100007.05382660613
99986.00053012262
100028.85244867878
99937.54009479313
100142.47674078257
99655.74210091548
100874.88934525668
97699.89222454178
106483.76038066717
82928.74568311281
166864.48105763987
583332.6483304359
934820.3600500306
999343.6927289359
1.0033048043107177e6
1.0089591747743029e6
1.0133257751153011e6
1.0166551691844201e6
1.0188570473321499e6
1.0198634407359923e6
1.0195159931453405e6
1.0176769932982486e6
1.0139917975922741e6
1.0082250796739584e6
999525.2662103456
987476.4502652006
969793.7523699867
945552.065572899
907790.2968571807
853138.876292368
757917.6376686345
602143.9614278527
100000.00062450024
99999.99863900727
100000.00223565
99999.99571770396
100000.00750577358
99999.98619513241
100000.02472061472
99999.955033258
100000.08123021082
99999.85232542195
100000.26841259786
99999.51007851015
100000.89652648524
99998.35223463173
100003.0417211412
99994.35338974929
100010.54971460505
99980.12765802749
100037.79867854921
99927.15669099704
100142.54707676203
99714.93869849454
100584.6291866387
98764.19770669886
102767.12095274466
93821.72604385736
117067.07962496212
477010.7864772513
880434.0384617555
989923.3790161113
994667.633267524
999529.3646172297
1.0031469768821527e6
1.0056324689369902e6
1.006881873308011e6
1.0068032102377291e6
1.0052058823943149e6
1.0019118388630163e6
996510.283931585
988684.5841438026
977487.1240900591
962354.2620372016
940894.3809783404
912051.3191117293
869250.7642531598
810270.0008247655
716088.0428304552
583281.8425443309
100000.00079756955
99999.9983995786
100000.00264865803
99999.99510291558
100000.0085077183
99999.98466015678
100000.02715376567
99999.9512819318
100000.08706552586
99999.84341347909
100000.28189763502
99999.49031622159
100000.92391655255
99998.31940420823
100003.064407063
99994.40206125322
100010.22492609329
99981.37803480524
100033.63037316882
99940.30026048813
100102.23909732954
99836.80215158127
100217.62708872002
99855.29741433807
99449.20516694566
103593.06864613845
86080.98280442707
368726.30171334126
805913.7312677803
975186.9296620667
986023.7108012869
989891.4561452067
992785.7338038275
994433.2499477263
994739.2753431575
993591.0569844517
990773.728128809
986079.3960749483
979060.6980177951
969356.084389973
955976.1151095228
938332.2076505331
914065.779478918
882366.5250322461
837207.727847312
778309.659636515
689816.7255428343
579127.1278215325
100000.00076617344
99999.99855511349
100000.00239078989
99999.99571309816
100000.00733059582
99999.98708278092
100000.02240150479
99999.96069107222
100000.06867654744
99999.87936492164
100000.2118519554
99999.62683709704
100000.65773911704
99998.83946178966
100002.04520340882
99996.40884557528
100006.24836121743
99989.32704943477
100017.55465084378
99973.31616508808
100033.05221587371
99985.47427382444
99887.75238586741
100614.69753227958
97637.04107506237
108240.75803714468
75372.5662098035
266900.1919281092
710131.5825902178
950581.7383176022
977196.8645137035
980109.1218494659
982315.4800160417
983152.5816675067
982546.6145360315
980371.3013218505
976399.7789715405
970405.6402420299
961926.1056228942
950588.6609275581
935410.9638822002
915859.8213346724
889713.9248851244
856526.3465910704
810972.2042776506
754235.8416916
673504.0019275522
579865.474641482
100000.00059365688
99999.99896782164
100000.00169586625
99999.99709910608
100000.0047968871
99999.991912811
100000.01337522372
99999.9777439829
100000.03655929123
99999.9401067624
100000.0968364537
99999.84526294637
100000.24198016837
99999.6328417484
100000.52815250169
99999.31377214172
100000.68511964599
99999.96090541268
99997.33831968538
100011.32639968819
99963.11006776914
100109.1946776982
99686.59942830465
100884.13529170133
97510.29865076918
107215.09818613635
80657.42773469779
180002.86186574886
595597.060475272
910747.0381048884
967615.942285032
970364.1143057038
971851.8922626157
971902.5069546857
970424.3214099057