# vtk DataFile Version 2.0
JuliaCFD
ASCII
DATASET UNSTRUCTURED_GRID

POINTS 32898 float
0.0 0.0 -0.05
0.0125 0.0 -0.05
0.025 0.0 -0.05
0.0375 0.0 -0.05
0.05 0.0 -0.05
0.0625 0.0 -0.05
0.075 0.0 -0.05
0.0875 0.0 -0.05
0.1 0.0 -0.05
0.1125 0.0 -0.05
0.125 0.0 -0.05
0.1375 0.0 -0.05
0.15 0.0 -0.05
0.1625 0.0 -0.05
0.175 0.0 -0.05
0.1875 0.0 -0.05
0.2 0.0 -0.05
0.2125 0.0 -0.05
0.225 0.0 -0.05
0.2375 0.0 -0.05
0.25 0.0 -0.05
0.2625 0.0 -0.05
0.275 0.0 -0.05
0.2875 0.0 -0.05
0.3 0.0 -0.05
0.3125 0.0 -0.05
0.325 0.0 -0.05
0.3375 0.0 -0.05
0.35 0.0 -0.05
0.3625 0.0 -0.05
0.375 0.0 -0.05
0.3875 0.0 -0.05
0.4 0.0 -0.05
0.4125 0.0 -0.05
0.425 0.0 -0.05
0.4375 0.0 -0.05
0.45 0.0 -0.05
0.4625 0.0 -0.05
0.475 0.0 -0.05
0.4875 0.0 -0.05
0.5 0.0 -0.05
0.5125 0.0 -0.05
0.525 0.0 -0.05
0.5375 0.0 -0.05
0.55 0.0 -0.05
0.5625 0.0 -0.05
0.575 0.0 -0.05
0.5875 0.0 -0.05
0.6 0.0 -0.05
0.0 0.0125 -0.05
0.0125 0.0125 -0.05
0.025 0.0125 -0.05
0.0375 0.0125 -0.05
0.05 0.0125 -0.05
0.0625 0.0125 -0.05
0.075 0.0125 -0.05
0.0875 0.0125 -0.05
0.1 0.0125 -0.05
0.1125 0.0125 -0.05
0.125 0.0125 -0.05
0.1375 0.0125 -0.05
0.15 0.0125 -0.05
0.1625 0.0125 -0.05
0.175 0.0125 -0.05
0.1875 0.0125 -0.05
0.2 0.0125 -0.05
0.2125 0.0125 -0.05
0.225 0.0125 -0.05
0.2375 0.0125 -0.05
0.25 0.0125 -0.05
0.2625 0.0125 -0.05
0.275 0.0125 -0.05
0.2875 0.0125 -0.05
0.3 0.0125 -0.05
0.3125 0.0125 -0.05
0.325 0.0125 -0.05
0.3375 0.0125 -0.05
0.35 0.0125 -0.05
0.3625 0.0125 -0.05
0.375 0.0125 -0.05
0.3875 0.0125 -0.05
0.4 0.0125 -0.05
0.4125 0.0125 -0.05
0.425 0.0125 -0.05
0.4375 0.0125 -0.05
0.45 0.0125 -0.05
0.4625 0.0125 -0.05
0.475 0.0125 -0.05
0.4875 0.0125 -0.05
0.5 0.0125 -0.05
0.5125 0.0125 -0.05
0.525 0.0125 -0.05
0.5375 0.0125 -0.05
0.55 0.0125 -0.05
0.5625 0.0125 -0.05
0.575 0.0125 -0.05
0.5875 0.0125 -0.05
0.6 0.0125 -0.05
0.0 0.025 -0.05
0.0125 0.025 -0.05
0.025 0.025 -0.05
0.0375 0.025 -0.05
0.05 0.025 -0.05
0.0625 0.025 -0.05
0.075 0.025 -0.05
0.0875 0.025 -0.05
0.1 0.025 -0.05
0.1125 0.025 -0.05
0.125 0.025 -0.05
0.1375 0.025 -0.05
0.15 0.025 -0.05
0.1625 0.025 -0.05
0.175 0.025 -0.05
0.1875 0.025 -0.05
0.2 0.025 -0.05
0.2125 0.025 -0.05
0.225 0.025 -0.05
0.2375 0.025 -0.05
0.25 0.025 -0.05
0.2625 0.025 -0.05
0.275 0.025 -0.05
0.2875 0.025 -0.05
0.3 0.025 -0.05
0.3125 0.025 -0.05
0.325 0.025 -0.05
0.3375 0.025 -0.05
0.35 0.025 -0.05
0.3625 0.025 -0.05
0.375 0.025 -0.05
0.3875 0.025 -0.05
0.4 0.025 -0.05
0.4125 0.025 -0.05
0.425 0.025 -0.05
0.4375 0.025 -0.05
0.45 0.025 -0.05
0.4625 0.025 -0.05
0.475 0.025 -0.05
0.4875 0.025 -0.05
0.5 0.025 -0.05
0.5125 0.025 -0.05
0.525 0.025 -0.05
0.5375 0.025 -0.05
0.55 0.025 -0.05
0.5625 0.025 -0.05
0.575 0.025 -0.05
0.5875 0.025 -0.05
0.6 0.025 -0.05
0.0 0.0375 -0.05
0.0125 0.0375 -0.05
0.025 0.0375 -0.05
0.0375 0.0375 -0.05
0.05 0.0375 -0.05
0.0625 0.0375 -0.05
0.075 0.0375 -0.05
0.0875 0.0375 -0.05
0.1 0.0375 -0.05
0.1125 0.0375 -0.05
0.125 0.0375 -0.05
0.1375 0.0375 -0.05
0.15 0.0375 -0.05
0.1625 0.0375 -0.05
0.175 0.0375 -0.05
0.1875 0.0375 -0.05
0.2 0.0375 -0.05
0.2125 0.0375 -0.05
0.225 0.0375 -0.05
0.2375 0.0375 -0.05
0.25 0.0375 -0.05
0.2625 0.0375 -0.05
0.275 0.0375 -0.05
0.2875 0.0375 -0.05
0.3 0.0375 -0.05
0.3125 0.0375 -0.05
0.325 0.0375 -0.05
0.3375 0.0375 -0.05
0.35 0.0375 -0.05
0.3625 0.0375 -0.05
0.375 0.0375 -0.05
0.3875 0.0375 -0.05
0.4 0.0375 -0.05
0.4125 0.0375 -0.05
0.425 0.0375 -0.05
0.4375 0.0375 -0.05
0.45 0.0375 -0.05
0.4625 0.0375 -0.05
0.475 0.0375 -0.05
0.4875 0.0375 -0.05
0.5 0.0375 -0.05
0.5125 0.0375 -0.05
0.525 0.0375 -0.05
0.5375 0.0375 -0.05
0.55 0.0375 -0.05
0.5625 0.0375 -0.05
0.575 0.0375 -0.05
0.5875 0.0375 -0.05
0.6 0.0375 -0.05
0.0 0.05 -0.05
0.0125 0.05 -0.05
0.025 0.05 -0.05
0.0375 0.05 -0.05
0.05 0.05 -0.05
0.0625 0.05 -0.05
0.075 0.05 -0.05
0.0875 0.05 -0.05
0.1 0.05 -0.05
0.1125 0.05 -0.05
0.125 0.05 -0.05
0.1375 0.05 -0.05
0.15 0.05 -0.05
0.1625 0.05 -0.05
0.175 0.05 -0.05
0.1875 0.05 -0.05
0.2 0.05 -0.05
0.2125 0.05 -0.05
0.225 0.05 -0.05
0.2375 0.05 -0.05
0.25 0.05 -0.05
0.2625 0.05 -0.05
0.275 0.05 -0.05
0.2875 0.05 -0.05
0.3 0.05 -0.05
0.3125 0.05 -0.05
0.325 0.05 -0.05
0.3375 0.05 -0.05
0.35 0.05 -0.05
0.3625 0.05 -0.05
0.375 0.05 -0.05
0.3875 0.05 -0.05
0.4 0.05 -0.05
0.4125 0.05 -0.05
0.425 0.05 -0.05
0.4375 0.05 -0.05
0.45 0.05 -0.05
0.4625 0.05 -0.05
0.475 0.05 -0.05
0.4875 0.05 -0.05
0.5 0.05 -0.05
0.5125 0.05 -0.05
0.525 0.05 -0.05
0.5375 0.05 -0.05
0.55 0.05 -0.05
0.5625 0.05 -0.05
0.575 0.05 -0.05
0.5875 0.05 -0.05
0.6 0.05 -0.05
0.0 0.0625 -0.05
0.0125 0.0625 -0.05
0.025 0.0625 -0.05
0.0375 0.0625 -0.05
0.05 0.0625 -0.05
0.0625 0.0625 -0.05
0.075 0.0625 -0.05
0.0875 0.0625 -0.05
0.1 0.0625 -0.05
0.1125 0.0625 -0.05
0.125 0.0625 -0.05
0.1375 0.0625 -0.05
0.15 0.0625 -0.05
0.1625 0.0625 -0.05
0.175 0.0625 -0.05
0.1875 0.0625 -0.05
0.2 0.0625 -0.05
0.2125 0.0625 -0.05
0.225 0.0625 -0.05
0.2375 0.0625 -0.05
0.25 0.0625 -0.05
0.2625 0.0625 -0.05
0.275 0.0625 -0.05
0.2875 0.0625 -0.05
0.3 0.0625 -0.05
0.3125 0.0625 -0.05
0.325 0.0625 -0.05
0.3375 0.0625 -0.05
0.35 0.0625 -0.05
0.3625 0.0625 -0.05
0.375 0.0625 -0.05
0.3875 0.0625 -0.05
0.4 0.0625 -0.05
0.4125 0.0625 -0.05
0.425 0.0625 -0.05
0.4375 0.0625 -0.05
0.45 0.0625 -0.05
0.4625 0.0625 -0.05
0.475 0.0625 -0.05
0.4875 0.0625 -0.05
0.5 0.0625 -0.05
0.5125 0.0625 -0.05
0.525 0.0625 -0.05
0.5375 0.0625 -0.05
0.55 0.0625 -0.05
0.5625 0.0625 -0.05
0.575 0.0625 -0.05
0.5875 0.0625 -0.05
0.6 0.0625 -0.05
0.0 0.075 -0.05
0.0125 0.075 -0.05
0.025 0.075 -0.05
0.0375 0.075 -0.05
0.05 0.075 -0.05
0.0625 0.075 -0.05
0.075 0.075 -0.05
0.0875 0.075 -0.05
0.1 0.075 -0.05
0.1125 0.075 -0.05
0.125 0.075 -0.05
0.1375 0.075 -0.05
0.15 0.075 -0.05
0.1625 0.075 -0.05
0.175 0.075 -0.05
0.1875 0.075 -0.05
0.2 0.075 -0.05
0.2125 0.075 -0.05
0.225 0.075 -0.05
0.2375 0.075 -0.05
0.25 0.075 -0.05
0.2625 0.075 -0.05
0.275 0.075 -0.05
0.2875 0.075 -0.05
0.3 0.075 -0.05
0.3125 0.075 -0.05
0.325 0.075 -0.05
0.3375 0.075 -0.05
0.35 0.075 -0.05
0.3625 0.075 -0.05
0.375 0.075 -0.05
0.3875 0.075 -0.05
0.4 0.075 -0.05
0.4125 0.075 -0.05
0.425 0.075 -0.05
0.4375 0.075 -0.05
0.45 0.075 -0.05
0.4625 0.075 -0.05
0.475 0.075 -0.05
0.4875 0.075 -0.05
0.5 0.075 -0.05
0.5125 0.075 -0.05
0.525 0.075 -0.05
0.5375 0.075 -0.05
0.55 0.075 -0.05
0.5625 0.075 -0.05
0.575 0.075 -0.05
0.5875 0.075 -0.05
0.6 0.075 -0.05
0.0 0.0875 -0.05
0.0125 0.0875 -0.05
0.025 0.0875 -0.05
0.0375 0.0875 -0.05
0.05 0.0875 -0.05
0.0625 0.0875 -0.05
0.075 0.0875 -0.05
0.0875 0.0875 -0.05
0.1 0.0875 -0.05
0.1125 0.0875 -0.05
0.125 0.0875 -0.05
0.1375 0.0875 -0.05
0.15 0.0875 -0.05
0.1625 0.0875 -0.05
0.175 0.0875 -0.05
0.1875 0.0875 -0.05
0.2 0.0875 -0.05
0.2125 0.0875 -0.05
0.225 0.0875 -0.05
0.2375 0.0875 -0.05
0.25 0.0875 -0.05
0.2625 0.0875 -0.05
0.275 0.0875 -0.05
0.2875 0.0875 -0.05
0.3 0.0875 -0.05
0.3125 0.0875 -0.05
0.325 0.0875 -0.05
0.3375 0.0875 -0.05
0.35 0.0875 -0.05
0.3625 0.0875 -0.05
0.375 0.0875 -0.05
0.3875 0.0875 -0.05
0.4 0.0875 -0.05
0.4125 0.0875 -0.05
0.425 0.0875 -0.05
0.4375 0.0875 -0.05
0.45 0.0875 -0.05
0.4625 0.0875 -0.05
0.475 0.0875 -0.05
0.4875 0.0875 -0.05
0.5 0.0875 -0.05
0.5125 0.0875 -0.05
0.525 0.0875 -0.05
0.5375 0.0875 -0.05
0.55 0.0875 -0.05
0.5625 0.0875 -0.05
0.575 0.0875 -0.05
0.5875 0.0875 -0.05
0.6 0.0875 -0.05
0.0 0.1 -0.05
0.0125 0.1 -0.05
0.025 0.1 -0.05
0.0375 0.1 -0.05
0.05 0.1 -0.05
0.0625 0.1 -0.05
0.075 0.1 -0.05
0.0875 0.1 -0.05
0.1 0.1 -0.05
0.1125 0.1 -0.05
0.125 0.1 -0.05
0.1375 0.1 -0.05
0.15 0.1 -0.05
0.1625 0.1 -0.05
0.175 0.1 -0.05
0.1875 0.1 -0.05
0.2 0.1 -0.05
0.2125 0.1 -0.05
0.225 0.1 -0.05
0.2375 0.1 -0.05
0.25 0.1 -0.05
0.2625 0.1 -0.05
0.275 0.1 -0.05
0.2875 0.1 -0.05
0.3 0.1 -0.05
0.3125 0.1 -0.05
0.325 0.1 -0.05
0.3375 0.1 -0.05
0.35 0.1 -0.05
0.3625 0.1 -0.05
0.375 0.1 -0.05
0.3875 0.1 -0.05
0.4 0.1 -0.05
0.4125 0.1 -0.05
0.425 0.1 -0.05
0.4375 0.1 -0.05
0.45 0.1 -0.05
0.4625 0.1 -0.05
0.475 0.1 -0.05
0.4875 0.1 -0.05
0.5 0.1 -0.05
0.5125 0.1 -0.05
0.525 0.1 -0.05
0.5375 0.1 -0.05
0.55 0.1 -0.05
0.5625 0.1 -0.05
0.575 0.1 -0.05
0.5875 0.1 -0.05
0.6 0.1 -0.05
0.0 0.1125 -0.05
0.0125 0.1125 -0.05
0.025 0.1125 -0.05
0.0375 0.1125 -0.05
0.05 0.1125 -0.05
0.0625 0.1125 -0.05
0.075 0.1125 -0.05
0.0875 0.1125 -0.05
0.1 0.1125 -0.05
0.1125 0.1125 -0.05
0.125 0.1125 -0.05
0.1375 0.1125 -0.05
0.15 0.1125 -0.05
0.1625 0.1125 -0.05
0.175 0.1125 -0.05
0.1875 0.1125 -0.05
0.2 0.1125 -0.05
0.2125 0.1125 -0.05
0.225 0.1125 -0.05
0.2375 0.1125 -0.05
0.25 0.1125 -0.05
0.2625 0.1125 -0.05
0.275 0.1125 -0.05
0.2875 0.1125 -0.05
0.3 0.1125 -0.05
0.3125 0.1125 -0.05
0.325 0.1125 -0.05
0.3375 0.1125 -0.05
0.35 0.1125 -0.05
0.3625 0.1125 -0.05
0.375 0.1125 -0.05
0.3875 0.1125 -0.05
0.4 0.1125 -0.05
0.4125 0.1125 -0.05
0.425 0.1125 -0.05
0.4375 0.1125 -0.05
0.45 0.1125 -0.05
0.4625 0.1125 -0.05
0.475 0.1125 -0.05
0.4875 0.1125 -0.05
0.5 0.1125 -0.05
0.5125 0.1125 -0.05
0.525 0.1125 -0.05
0.5375 0.1125 -0.05
0.55 0.1125 -0.05
0.5625 0.1125 -0.05
0.575 0.1125 -0.05
0.5875 0.1125 -0.05
0.6 0.1125 -0.05
0.0 0.125 -0.05
0.0125 0.125 -0.05
0.025 0.125 -0.05
0.0375 0.125 -0.05
0.05 0.125 -0.05
0.0625 0.125 -0.05
0.075 0.125 -0.05
0.0875 0.125 -0.05
0.1 0.125 -0.05
0.1125 0.125 -0.05
0.125 0.125 -0.05
0.1375 0.125 -0.05
0.15 0.125 -0.05
0.1625 0.125 -0.05
0.175 0.125 -0.05
0.1875 0.125 -0.05
0.2 0.125 -0.05
0.2125 0.125 -0.05
0.225 0.125 -0.05
0.2375 0.125 -0.05
0.25 0.125 -0.05
0.2625 0.125 -0.05
0.275 0.125 -0.05
0.2875 0.125 -0.05
0.3 0.125 -0.05
0.3125 0.125 -0.05
0.325 0.125 -0.05
0.3375 0.125 -0.05
0.35 0.125 -0.05
0.3625 0.125 -0.05
0.375 0.125 -0.05
0.3875 0.125 -0.05
0.4 0.125 -0.05
0.4125 0.125 -0.05
0.425 0.125 -0.05
0.4375 0.125 -0.05
0.45 0.125 -0.05
0.4625 0.125 -0.05
0.475 0.125 -0.05
0.4875 0.125 -0.05
0.5 0.125 -0.05
0.5125 0.125 -0.05
0.525 0.125 -0.05
0.5375 0.125 -0.05
0.55 0.125 -0.05
0.5625 0.125 -0.05
0.575 0.125 -0.05
0.5875 0.125 -0.05
0.6 0.125 -0.05
0.0 0.1375 -0.05
0.0125 0.1375 -0.05
0.025 0.1375 -0.05
0.0375 0.1375 -0.05
0.05 0.1375 -0.05
0.0625 0.1375 -0.05
0.075 0.1375 -0.05
0.0875 0.1375 -0.05
[...]
CELL_DATA 16128
SCALARS P float 1
LOOKUP_TABLE default
100000.01059130706
99999.9818359691
100000.02980217722
99999.9497834992
100000.08312029955
99999.8610635012
100000.23059881771
99999.61605331424
100000.63740092184
99998.94108324414
100001.75669932301
99997.08609666707
100004.82908231707
99991.99996905566
100013.24153317352
99978.09552223925
100036.16531180298
99940.42120413043
100097.3877674196
99842.74609889186
100244.64776508724
99645.86531038414
100396.91728531657
99939.9443184238
97896.0762106184
110151.94739630446
463565.7076487304
933341.7432081123
1.0782207165405767e6
1.0701779552305155e6
1.0872099964958013e6
1.0974866519676892e6
1.1089173490969073e6
1.1193912880560188e6
1.1294732974219378e6
1.1390107268555716e6
1.1480053730295983e6
1.1565033185871677e6
1.1643587442494596e6
1.1717705174627213e6
1.1783092159842898e6
1.1846243274397843e6
1.1894699271953588e6
1.1948988265014032e6
1.1971917656232328e6
1.202720864240011e6
1.2001962122408582e6
1.209240381186536e6
100000.01051458847
99999.9820183986
100000.02953671514
99999.9503093099
100000.08224183704
99999.86270405953
100000.22768152363
99999.62143073115
100000.62760454221
99998.95907749175
100001.72384616372
99997.14579640156
100004.72184511265
99992.1894712211
100012.91490067616
99978.6378792131
100035.31711525065
99941.60976083449
100096.10022245157
99842.94496438619
100249.39116975895
99624.87599503451
100464.38335262318
99748.02819718806
98408.94111768746
108842.03460306828
460037.1704860495
933172.534022306
1.0826422841177515e6
1.0753042199186895e6
1.092853664351847e6
1.103377438826499e6
1.1149445757603066e6
1.1255133046825319e6
1.135674730292145e6
1.1452937462355865e6
1.1543759379770483e6
1.16296823008824e6
1.1709215446355005e6
1.1784313792681885e6
1.1850618394877077e6
1.1914599427543683e6
1.1963685205772072e6
1.2018472061188705e6
1.2041467790320383e6
1.2096929676653175e6
1.2070699251272928e6
1.2162118138098887e6
100000.00995352327
99999.98299843258
100000.0279360567
99999.95303591712
100000.07773373277
99999.8702727053
100000.2151439075
99999.64226642877
100000.59324731852
99999.01557934232
100001.63160796966
99997.2953216938
100004.48197733986
99992.56914091513
100012.32573414619
99979.52456334957
100034.052305705
99943.22368716366
100094.59829158505
99842.42437825131
100258.1699327436
99588.44677121037
100586.44843969673
99369.47581065772
99575.94205040544
105242.38100912567
447940.96852536616
922631.384233058
1.0789093337755646e6
1.071349344704161e6
1.088434121368147e6
1.0987684213511706e6
1.110118299416358e6
1.120518364219903e6
1.1305097730758537e6
1.139961815815816e6
1.148873539162584e6
1.157292719052326e6
1.1650740447069022e6
1.1724137966048971e6
1.1788857371537492e6
1.1851333470208438e6
1.1899172396667348e6
1.1952840645789225e6
1.1975084851100738e6
1.2030113093537886e6
1.2003156530573978e6
1.2096188276143789e6
100000.00916620146
99999.98437716645
100000.02568882357
99999.95686352752
100000.07140617007
99999.88089905746
100000.197518225
99999.67161849022
100000.54467037157
99999.09589438527
100001.49946613012
99997.51188952985
100004.12928746945
99993.13898683873
100011.41631040924
99980.94793330664
100031.90125748413
99946.2542879876
100090.99571077255
99844.46867382519
100265.78378668023
99544.16857437465
100752.09513304567
98831.7179934023
101291.3986495338
100159.89786875775
430571.32105179963
909670.5299917641
1.0780412771897204e6
1.0710493244578233e6
1.0880661937508045e6
1.0985749058751496e6
1.1099401890094923e6
1.1203669769530892e6
1.1303577759928063e6
1.1398090693736873e6
1.1487208106221936e6
1.1571460130946075e6
1.1649429701284235e6
1.172306636149656e6
1.1788155571033142e6
1.185105443406357e6
1.1899436862282543e6
1.1953637840947541e6
1.1976348203525655e6
1.2032068062510905e6
1.2004470956753874e6
1.2100038380223075e6
100000.00820527897
99999.98606002642
100000.02294465508
99999.96153803637
100000.06366669654
99999.89391547712
100000.17586605661
99999.7078022727
100000.48448556937
99999.19603566967
100001.33333571232
99997.78699769503
100003.6754010559
99993.88428680616
100010.20258886422
99982.8975617152
100028.8497728941
99950.79347843825
100084.98411685883
99849.99955542352
100269.63739083198
99499.48054661514
100940.72821763433
98194.30251837318
103413.12785106251
94041.95173922843
407103.7081375463
890454.6538600312
1.0747945619089538e6
1.0685572319404723e6
1.0849187327000264e6
1.0953537749828717e6
1.1064677579969177e6
1.1167086036721785e6
1.1264963752827276e6
1.1357513738311431e6
1.1444655945318593e6
1.1526941915082727e6
1.1602986940582606e6
1.1674722746008781e6
1.1738027293457612e6
1.1799179096450028e6
1.1846026848498671e6
1.189876293213701e6
1.1920210793526473e6
1.1975209558062674e6
1.1945848298450771e6
1.2044053920153903e6
100000.00713595406
99999.98792894598
100000.01989317377
99999.96673262338
100000.05505273784
99999.9084181665
100000.15168064187
99999.74834071925
100000.41676934298
99999.30931273685
100001.14413016751
99998.10296323693
100003.1486882809
99994.76022488886
100008.75347379543
99985.27283555108
100025.02909942382
99956.71971944788
100076.50684229744
99859.83086880902
100266.45947775085
99465.17233314704
101120.30069476609
97549.26008624792
105684.67983182454
87657.76684550176
378451.89830109495
865732.294399911
1.070862371851244e6
1.0665732912041068e6
1.0821751480289216e6
1.092720470243217e6
1.103666761689588e6
1.1138064338723128e6
1.12346031788696e6
1.1325848187095262e6
1.1411673461247035e6
1.1492692470067842e6
1.1567581773725003e6
1.1638272903910847e6
1.1700751626641052e6
1.1761218082745573e6
1.180767374624842e6
1.1860159665190063e6
1.1881463003149938e6
1.1936919023407467e6
1.190628129176288e6
1.2008268836827695e6
100000.00602580185
99999.989859865
100000.01673637299
99999.97209371797
100000.04615827692
99999.92338501425
100000.1266996912
99999.79025713647
100000.34660418492
99999.42702950056
100000.94670041639
99998.4344614607
100002.59213027933
99995.6944620183
100007.18890280955
99987.88044593016
100020.73510673734
99963.62903461665
100065.96709778397
99874.09643822772
100253.7477616361
99451.90936601217
101254.75454857163
97004.30426231267
107771.36381249545
81826.87542815595
345103.8505028339
834353.2257676665
1.0647818098582253e6
1.0640159557032818e6
1.0783527655539312e6
1.0889529028834829e6
1.0995915550145674e6
1.1095152028180817e6
1.1189174623564323e6
1.127792614924899e6
1.1361192444598156e6
1.14396219926785e6
1.1511929854206345e6
1.1580020830692456e6
1.163997482026007e6
1.1697898312436594e6
1.1741960877145045e6
1.1792115010085967e6
1.1811159964984832e6
1.1865320303515205e6
1.1831603166215194e6
1.193757279591159e6
100000.00493637101
99999.99173910034
100000.01366186312
99999.9772901871
100000.03754951169
99999.93782654201
100000.10264205105
99999.83054194198
100000.27926418144
99999.53991240748
100000.7573725472
99998.7527368328
100002.05628087196
99996.59849186077
100005.66231118405
99990.45857693408
100016.40050011719
99970.84575173844
100054.29159628932
99891.93857733037
100230.7265348109
99467.68095132182
101309.70584956248
96672.59039192255
109261.92398842663
77462.2368856131
308024.43916436064
795870.1292869961
1.056121481319746e6
1.061464434054439e6
1.0740950249961722e6
1.0848384372311772e6
1.0951568822097136e6
1.1048630432254593e6
1.1140050510379253e6
1.122619726274138e6
1.13067881981644e6
1.1382534813509232e6
1.1452231072190872e6
1.151780367482204e6
1.157548998138902e6
1.1631367814850353e6
1.1673827687638877e6
1.172276569986987e6
1.1740870866246494e6
1.179528266553508e6
1.175941644339906e6
1.1870986222669194e6
100000.00391530615
99999.99347978154
100000.01081464032
99999.98206681712
100000.02966772151
99999.95096528919
100000.08087773295
99999.86675622808
100000.2191085878
99999.64011444397
100000.59032482718
99999.03206422454
100001.58788212661
99997.38740776469
100004.32731415353
99992.73176715894
100012.51024715084
99977.5432420658
100042.79384360505
99911.55490851119
100198.7691283257
99515.60172822818
101260.67870762508
96648.34860126121
109753.54431902745
75428.58132653713
268374.0161540513
749637.0310130613
1.0436803099770718e6
1.058761685111058e6
1.0691219812432136e6
1.080017724657191e6
1.0899358257942784e6
1.0993485157698481e6
1.1081476069440756e6
1.1164102140436217e6
1.1240990683889138e6
1.131287115744215e6
1.1378558727923196e6
1.1439928947410467e6
1.1493271812067982e6
1.1544555278950192e6
1.1582258041885765e6
1.1626320767572273e6
1.163921545157059e6
1.1689977064979894e6
1.164765142542039e6
1.1764667671581393e6
100000.00299140552
99999.99503321451
100000.00827657573
99999.98628500308
100000.02275142125
99999.96238701278
100000.0621376732
99999.89759190584
100000.16851387387
99999.72325716316
100000.45373142895
99999.25701557304
100001.21631724916
99998.00489273293
100003.29210708839
99994.49221365085
100009.4597662404
99982.97911267947
100032.8145467305
99930.6530547043
100161.17568256533
99592.58222761546
101101.71012409906
96973.01168156453
109065.39871638412
76306.25731663046
227617.2722030433
695318.7543426336
1.0261792407457342e6
1.0559674874652785e6
1.0635816649775107e6
1.0746433236207108e6
1.0841246734154292e6
1.0931983021555915e6
1.1016064829119167e6
1.1094627771218533e6
1.116724799167375e6
1.1234702323670888e6
1.129589550916718e6
1.135275325595179e6
1.140177886776554e6
1.144901428067644e6
1.1483282275435354e6
1.1524664226532776e6
1.1535509358874334e6
1.1586232414571194e6
1.1540838808368263e6
1.1666268760326784e6
100000.00217439966
99999.99639040124
100000.00606203252
99999.9899332385
100000.01681005459
99999.97209943116
100000.04638045208
99999.9231582268
100000.12725561012
99999.78972112839
100000.34706994194
99999.42795576062
100000.94246533889
99998.44548113097
100002.57566685404
99995.6846728441
100007.39517680318
99986.78726323215
100025.22355110175
99947.22123679012
100122.32559691109
99689.33730069129
100850.88830252933
97615.86107534081
107241.85119018226
80253.0878704514
187512.8636213574
632917.9734388777
1.001980111816651e6
1.0528688829250978e6
1.0574935415679282e6
1.0686486167437e6
1.0776502796258419e6
1.086310223112702e6
1.0942488884575597e6
1.1016029062632173e6
1.1083223293637524e6
1.1144801839234903e6
1.119962003856656e6
1.1249464072140136e6
1.1290726592864932e6
1.1329214906082125e6
1.1353503171288474e6
1.138380817228038e6
1.1381591992272318e6
1.142111940383863e6
1.1359309029639224e6
1.1490813252306627e6
100000.00146004539
99999.99757163251
100000.00413409995
99999.99309779174
100000.01167128717
99999.98045448116
100000.03291333688
99999.94480516933
100000.09274532575
99999.84440752892
100000.26118921675
99999.56172681802
100000.73588486233
99998.76296794324
100002.08597175944
99996.45877192481
100006.0939260501
99989.23782234579
100019.88013360767
99960.59378599272
100085.75326705586
99793.48882100542
100546.67714067694
98473.94703560692
104613.13505757185
86807.19309842815
150146.316744529
563020.3732636415
969231.1778931567
1.0490282591592066e6
1.0509985609837065e6
1.0620636399398146e6
1.0705694939913237e6
1.0787456707665129e6
1.0861484230746327e6
1.092922078146102e6
1.0990149746064637e6
1.1044990411457e6
1.1092663153235686e6
1.1134999850863405e6
1.11686611125639e6
1.119964101838012e6
1.1217192684811542e6
1.1241817743332172e6
1.1235730977862517e6
1.1273885049441322e6
1.1208732828289052e6
1.1351548227989287e6
100000.00083903625
99999.99860655305
100000.0024381143
99999.99589811162
100000.00709668257
99999.98793515634
100000.02077630673
99999.96442955326
100000.06126404899
99999.89455446161
100000.1820936824
99999.68517578342
100000.54552129118
99999.05333586822
100001.64541113634
99997.13578265758
100004.9965288034
99991.24526683647
100015.48193529325
99972.02658843533
100052.58963228126
99893.3577470716
100239.29758917484
99390.79306222322
101737.58988898319
94770.72497282636
117947.12571800634
486995.4126846674
925898.2026022491
1.0435397133083823e6
1.0442579456305166e6
1.0548800448258994e6
1.062890493761955e6
1.0705003165312302e6
1.077285030371932e6
1.0833715226232135e6
1.088700984969152e6
1.0933276919915462e6
1.0971220717550982e6
1.100230130910854e6
1.1022639240198222e6
1.1037494883552357e6
1.1034738364791665e6
1.103442388616555e6
1.099528686715593e6
1.099953147559222e6
1.0884045181399018e6
1.1026110051851636e6
100000.00030647739
99999.99951195579
100000.00094070134
99999.99840946782
100000.00292757814
99999.99487615356
100000.00927397695
99999.9834653592
100000.02987866646
99999.94612428984
100000.09774398254
99999.82246373875
100000.32324824783
99999.41160945868
100001.06860457007
99998.07121966484
100003.43928972598
99993.99597964328
100010.07976603376
99984.19907467357
100021.13529864665
99982.16473651445
99973.32634451873
100194.32321792812
99243.03803659319
102316.91650350278
93563.29938168013
407230.7910528571
869985.6047083286
1.0348453850254095e6
1.0374590260931054e6
1.047109705758346e6
1.0546515116161695e6
1.0616196103531818e6
1.0677151220673532e6
1.0730271430107227e6
1.0774947385899054e6
1.0811580684783335e6
1.0838817900758996e6
1.0858020661433735e6
1.086552062454971e6
1.0866692843120417e6
1.0850707809064374e6
1.0837599613072646e6
1.0790555807493827e6
1.0785926532139995e6
1.0670616376652548e6
1.0805033481549034e6
99999.99986779717
100000.00027709529
99999.99965719965
100000.00060656933
99999.9991973608
100000.0012384867
99999.99842639618
100000.00198221035
99999.99823916046
100000.00022279161
100000.0051601601
99999.98100583961
100000.05153984722
99999.87773349455
100000.26733602081
99999.45440057786
100001.030049448
99998.26839522787
100002.24168441113
99999.42306845292
99988.94397395365
100057.5989799181
99777.72496740843
100746.51187296247
97625.6177318839
107470.66752922985
79211.96433630711
327171.9411716443
800011.1249527342
1.0206098784769739e6
1.0307402689026484e6
1.0387780617648694e6
1.0458862189392926e6
1.052141819228552e6
1.0574711250175573e6
1.0619054067262418e6
1.0653718880956036e6
1.0678754702091555e6
1.0692327473777211e6
1.069500197751543e6
1.068178541850067e6
1.0655973095414191e6
1.0602737525422026e6
1.0537813554551448e6
1.0410933615475879e6
1.0305042758719703e6
1.0010488784672205e6
1.00771964578474e6
99999.99953803126
100000.00086458965
99999.99865252597
100000.00235934198
99999.99614824742
100000.00656327709
99999.98908972391
100000.01839211484
99999.96926932358
100000.0515183903
99999.91397510591
100000.1436162656
99999.7606181228
100000.39957184714
99999.32936454355
100001.14240261714
99997.99151582025
100003.73479447552
99992.4208980037
100017.07176105857
99957.15324793984
100115.95452036857
99667.45656597466
100976.71514790057
97113.47734623642
108933.5672696874
75567.26109102737
250987.68724015457
715667.5991491758
997809.9128872434
1.0241000155674559e6
1.0299737512985411e6
1.036652464215948e6
1.0421399577935693e6
1.0466373995566783e6
1.0501141448955708e6
1.0524851279388561e6
1.053720915602287e6
1.0536047066526562e6
1.052137295368797e6
1.0487942705966933e6
1.0438287376386785e6
1.0359082326557615e6
1.0264140259741226e6
1.0116256377109421e6
996779.0720400506
968613.1788629073
935378.0722368631
99999.99933416529
100000.0012284247
99999.99801130843
100000.00349097911
99999.99412748941
100000.01016206082
99999.98261475987
100000.03005783178
99999.94809872814
100000.09008159737
99999.84334311668
100000.27350738339
99999.52081496667
100000.84342460048
99998.50696356891
100002.66393467475
99995.19144318557
100008.83026703539
99983.34764128269
100032.61691024795
99932.54854602799
100148.8107511835
99646.00221572063
100903.32110763631
97579.52091357582
107050.96282343256
80903.5069193567
183089.62042571796
618217.3843311885
962865.8921515476
1.0171449339801216e6
1.0208690115033895e6
1.0270196113640119e6
1.0316958478450218e6
1.0352981142000358e6
1.037742017463703e6
1.0389173636048497e6
1.0387460692862744e6
1.0369410196126614e6
1.0333847463956748e6
1.0273665934901289e6
1.0187446434010505e6
1.0055206143555014e6
987464.495457185
957799.1177015442
914699.8944684352
828636.9462595016
676457.1421037419
99999.9992637483
100000.00134171643
99999.99778896132
100000.0038762751
99999.99340044167
100000.01147884564
99999.98015113146
100000.03463034326
99999.9394959816
100000.10629991887
99999.81255024673
100000.33217398389
99999.4086724572
100001.05794577781
99998.09750591063
100003.44005688223
99993.74224287037
100011.46154734476
99978.82708106219
100039.54434058203
99924.93955583041
100145.71447959963
99707.05651454796
100617.94032687483
98616.38983171324
103415.61178795723
91398.37858023493
128354.17999638506
510861.9509164571
911656.6980150338
1.0085445073501355e6
1.0116717480340746e6
1.0170501500727873e6
1.0208971309279846e6
1.0235589337550594e6
1.0249238402712421e6
1.0248504127023622e6
1.0232088648429547e6
1.0196513957824806e6
1.0139505997613885e6
1.0052567567719311e6
993161.1750952166
975366.7746059207
950963.3477081077
912928.2299264638
857961.2280790126
762100.481952363
605634.4649728124
99999.99931536548
100000.00122046996
99999.99796773434
100000.0035319993
99999.99397188278
100000.01044725638
99999.9819357982
100000.03146640192
99999.9450441683
100000.09650365962
99999.8298094828
100000.3016837504
99999.46262617648
100000.96196447675
99998.26992841664
100003.12438356697
99994.33980006099
100010.26837317193
99981.39654957358
100033.49701072367
99940.492816188
100102.77750662187
99831.47733865777
100245.07210670091
99739.57253323782
99900.07894126291
101896.94665449251
91860.00100501423
399494.2152681838
840139.4843466546
995389.0761162908
1.0025035396666348e6
1.0067833854732037e6
1.0098214123413963e6
1.011525834507523e6
1.011797809489356e6
1.0104615230460343e6
1.0073451632277054e6
1.0020461553638506e6
994255.224927111
983025.6003249555
967800.8309502974
946174.0919530201
917108.7512916023
873961.7768227883
814604.276580325
719743.9796806835
586316.6920904845
99999.99945627003
100000.0009299946
99999.99844230985
100000.00264868244
99999.99551610446
100000.00764102698
99999.98697028823
100000.02231520129
99999.96168609026
100000.06603736643
99999.8857972035
100000.19825625773
99999.65459055372
100000.60385647156
99998.9414709803
100001.85795168836
99996.74345578025
100005.6712220419
99990.27724536482
100016.10620839758
99975.21857898234
100031.45609847215
99983.75988919697
99902.11412924781
100561.36917988927
97793.87551138636
107804.15694149214
76323.61775838216
292528.47715087497
746320.4738734765
973172.3511873204
993308.6333279152
996287.0946453044
998556.8669868902
999318.3174595477
998516.091986103
995946.3423905087
991411.2357646296
984470.4451006055
974770.4406066664
961322.2813497944
943545.288662522
919065.2019506379
887095.0953881515
841542.266974277
782226.92434619
693066.442365642
581795.2353470923
99999.99963922352
100000.00056873093
99999.99904584949
100000.00154036883
99999.9974659247
100000.00411088903
99999.99331440064
100000.01078949573
99999.9826681217
100000.02759186235
99999.95655499843
100000.0673152402
99999.89809894495
100000.14874861528
99999.79592161429
100000.24723725408
99999.78937054252
99999.90082133704
100001.20646225855
99995.47601792839
100013.84310298691
99960.31088056495
100111.0971047851
99686.92442553275
100887.84751017779
97444.84050532465
107655.14863886507
78782.35798238822
198956.191202249
631840.7218141606
936362.174498778
983690.7470199341
985752.2817624941
987229.8244014331
987073.377444187
985235.1595432559
981495.5116659632
975640.2761594153
967214.0039033417
955852.0847254613
940572.9894244164
920852.1921609747
894454.3278416457
860957.1732864792
814979.3576051368
757796.5873145469
676422.6354911025
582213.5365577785
99999.9998159381
100000.00023630729
99999.99960571689
100000.0005335645
99999.99922324234
100000.00097621593
99999.99887567262
100000.00083282588
100000.00052491065
99999.99538165818
100000.01487942292
99999.96118685717
100000.09204504926
99999.79279242567
100000.45160422793
99999.03622749387
100002.02800016444
99995.77179167123
100008.76558391297
99981.87080846337
100037.50317701671
99922.07924434102
100162.99190317464
99654.07910587126
100746.94831150203
98343.20992255223
103875.60794544787
91011.819064237
127538.40824013186
502353.7553888518
878295.9937375835
971918.8680089752
975383.9786860663
975964.4533158689
974917.979670087
972096.8280935326
967274.7482448483