# vtk DataFile Version 2.0
JuliaCFD
ASCII
DATASET UNSTRUCTURED_GRID

POINTS 32898 float
0.0 0.0 -0.05
0.0125 0.0 -0.05
0.025 0.0 -0.05
0.0375 0.0 -0.05
0.05 0.0 -0.05
0.0625 0.0 -0.05
0.075 0.0 -0.05
0.0875 0.0 -0.05
0.1 0.0 -0.05
0.1125 0.0 -0.05
0.125 0.0 -0.05
0.1375 0.0 -0.05
0.15 0.0 -0.05
0.1625 0.0 -0.05
0.175 0.0 -0.05
0.1875 0.0 -0.05
0.2 0.0 -0.05
0.2125 0.0 -0.05
0.225 0.0 -0.05
0.2375 0.0 -0.05
0.25 0.0 -0.05
0.2625 0.0 -0.05
0.275 0.0 -0.05
0.2875 0.0 -0.05
0.3 0.0 -0.05
0.3125 0.0 -0.05
0.325 0.0 -0.05
0.3375 0.0 -0.05
0.35 0.0 -0.05
0.3625 0.0 -0.05
0.375 0.0 -0.05
0.3875 0.0 -0.05
0.4 0.0 -0.05
0.4125 0.0 -0.05
0.425 0.0 -0.05
0.4375 0.0 -0.05
0.45 0.0 -0.05
0.4625 0.0 -0.05
0.475 0.0 -0.05
0.4875 0.0 -0.05
0.5 0.0 -0.05
0.5125 0.0 -0.05
0.525 0.0 -0.05
0.5375 0.0 -0.05
0.55 0.0 -0.05
0.5625 0.0 -0.05
0.575 0.0 -0.05
0.5875 0.0 -0.05
0.6 0.0 -0.05
0.0 0.0125 -0.05
0.0125 0.0125 -0.05
0.025 0.0125 -0.05
0.0375 0.0125 -0.05
0.05 0.0125 -0.05
0.0625 0.0125 -0.05
0.075 0.0125 -0.05
0.0875 0.0125 -0.05
0.1 0.0125 -0.05
0.1125 0.0125 -0.05
0.125 0.0125 -0.05
0.1375 0.0125 -0.05
0.15 0.0125 -0.05
0.1625 0.0125 -0.05
0.175 0.0125 -0.05
0.1875 0.0125 -0.05
0.2 0.0125 -0.05
0.2125 0.0125 -0.05
0.225 0.0125 -0.05
0.2375 0.0125 -0.05
0.25 0.0125 -0.05
0.2625 0.0125 -0.05
0.275 0.0125 -0.05
0.2875 0.0125 -0.05
0.3 0.0125 -0.05
0.3125 0.0125 -0.05
0.325 0.0125 -0.05
0.3375 0.0125 -0.05
0.35 0.0125 -0.05
0.3625 0.0125 -0.05
0.375 0.0125 -0.05
0.3875 0.0125 -0.05
0.4 0.0125 -0.05
0.4125 0.0125 -0.05
0.425 0.0125 -0.05
0.4375 0.0125 -0.05
0.45 0.0125 -0.05
0.4625 0.0125 -0.05
0.475 0.0125 -0.05
0.4875 0.0125 -0.05
0.5 0.0125 -0.05
0.5125 0.0125 -0.05
0.525 0.0125 -0.05
0.5375 0.0125 -0.05
0.55 0.0125 -0.05
0.5625 0.0125 -0.05
0.575 0.0125 -0.05
0.5875 0.0125 -0.05
0.6 0.0125 -0.05
0.0 0.025 -0.05
0.0125 0.025 -0.05
0.025 0.025 -0.05
0.0375 0.025 -0.05
0.05 0.025 -0.05
0.0625 0.025 -0.05
0.075 0.025 -0.05
0.0875 0.025 -0.05
0.1 0.025 -0.05
0.1125 0.025 -0.05
0.125 0.025 -0.05
0.1375 0.025 -0.05
0.15 0.025 -0.05
0.1625 0.025 -0.05
0.175 0.025 -0.05
0.1875 0.025 -0.05
0.2 0.025 -0.05
0.2125 0.025 -0.05
0.225 0.025 -0.05
0.2375 0.025 -0.05
0.25 0.025 -0.05
0.2625 0.025 -0.05
0.275 0.025 -0.05
0.2875 0.025 -0.05
0.3 0.025 -0.05
0.3125 0.025 -0.05
0.325 0.025 -0.05
0.3375 0.025 -0.05
0.35 0.025 -0.05
0.3625 0.025 -0.05
0.375 0.025 -0.05
0.3875 0.025 -0.05
0.4 0.025 -0.05
0.4125 0.025 -0.05
0.425 0.025 -0.05
0.4375 0.025 -0.05
0.45 0.025 -0.05
0.4625 0.025 -0.05
0.475 0.025 -0.05
0.4875 0.025 -0.05
0.5 0.025 -0.05
0.5125 0.025 -0.05
0.525 0.025 -0.05
0.5375 0.025 -0.05
0.55 0.025 -0.05
0.5625 0.025 -0.05
0.575 0.025 -0.05
0.5875 0.025 -0.05
0.6 0.025 -0.05
0.0 0.0375 -0.05
0.0125 0.0375 -0.05
0.025 0.0375 -0.05
0.0375 0.0375 -0.05
0.05 0.0375 -0.05
0.0625 0.0375 -0.05
0.075 0.0375 -0.05
0.0875 0.0375 -0.05
0.1 0.0375 -0.05
0.1125 0.0375 -0.05
0.125 0.0375 -0.05
0.1375 0.0375 -0.05
0.15 0.0375 -0.05
0.1625 0.0375 -0.05
0.175 0.0375 -0.05
0.1875 0.0375 -0.05
0.2 0.0375 -0.05
0.2125 0.0375 -0.05
0.225 0.0375 -0.05
0.2375 0.0375 -0.05
0.25 0.0375 -0.05
0.2625 0.0375 -0.05
0.275 0.0375 -0.05
0.2875 0.0375 -0.05
0.3 0.0375 -0.05
0.3125 0.0375 -0.05
0.325 0.0375 -0.05
0.3375 0.0375 -0.05
0.35 0.0375 -0.05
0.3625 0.0375 -0.05
0.375 0.0375 -0.05
0.3875 0.0375 -0.05
0.4 0.0375 -0.05
0.4125 0.0375 -0.05
0.425 0.0375 -0.05
0.4375 0.0375 -0.05
0.45 0.0375 -0.05
0.4625 0.0375 -0.05
0.475 0.0375 -0.05
0.4875 0.0375 -0.05
0.5 0.0375 -0.05
0.5125 0.0375 -0.05
0.525 0.0375 -0.05
0.5375 0.0375 -0.05
0.55 0.0375 -0.05
0.5625 0.0375 -0.05
0.575 0.0375 -0.05
0.5875 0.0375 -0.05
0.6 0.0375 -0.05
0.0 0.05 -0.05
0.0125 0.05 -0.05
0.025 0.05 -0.05
0.0375 0.05 -0.05
0.05 0.05 -0.05
0.0625 0.05 -0.05
0.075 0.05 -0.05
0.0875 0.05 -0.05
0.1 0.05 -0.05
0.1125 0.05 -0.05
0.125 0.05 -0.05
0.1375 0.05 -0.05
0.15 0.05 -0.05
0.1625 0.05 -0.05
0.175 0.05 -0.05
0.1875 0.05 -0.05
0.2 0.05 -0.05
0.2125 0.05 -0.05
0.225 0.05 -0.05
0.2375 0.05 -0.05
0.25 0.05 -0.05
0.2625 0.05 -0.05
0.275 0.05 -0.05
0.2875 0.05 -0.05
0.3 0.05 -0.05
0.3125 0.05 -0.05
0.325 0.05 -0.05
0.3375 0.05 -0.05
0.35 0.05 -0.05
0.3625 0.05 -0.05
0.375 0.05 -0.05
0.3875 0.05 -0.05
0.4 0.05 -0.05
0.4125 0.05 -0.05
0.425 0.05 -0.05
0.4375 0.05 -0.05
0.45 0.05 -0.05
0.4625 0.05 -0.05
0.475 0.05 -0.05
0.4875 0.05 -0.05
0.5 0.05 -0.05
0.5125 0.05 -0.05
0.525 0.05 -0.05
0.5375 0.05 -0.05
0.55 0.05 -0.05
0.5625 0.05 -0.05
0.575 0.05 -0.05
0.5875 0.05 -0.05
0.6 0.05 -0.05
0.0 0.0625 -0.05
0.0125 0.0625 -0.05
0.025 0.0625 -0.05
0.0375 0.0625 -0.05
0.05 0.0625 -0.05
0.0625 0.0625 -0.05
0.075 0.0625 -0.05
0.0875 0.0625 -0.05
0.1 0.0625 -0.05
0.1125 0.0625 -0.05
0.125 0.0625 -0.05
0.1375 0.0625 -0.05
0.15 0.0625 -0.05
0.1625 0.0625 -0.05
0.175 0.0625 -0.05
0.1875 0.0625 -0.05
0.2 0.0625 -0.05
0.2125 0.0625 -0.05
0.225 0.0625 -0.05
0.2375 0.0625 -0.05
0.25 0.0625 -0.05
0.2625 0.0625 -0.05
0.275 0.0625 -0.05
0.2875 0.0625 -0.05
0.3 0.0625 -0.05
0.3125 0.0625 -0.05
0.325 0.0625 -0.05
0.3375 0.0625 -0.05
0.35 0.0625 -0.05
0.3625 0.0625 -0.05
0.375 0.0625 -0.05
0.3875 0.0625 -0.05
0.4 0.0625 -0.05
0.4125 0.0625 -0.05
0.425 0.0625 -0.05
0.4375 0.0625 -0.05
0.45 0.0625 -0.05
0.4625 0.0625 -0.05
0.475 0.0625 -0.05
0.4875 0.0625 -0.05
0.5 0.0625 -0.05
0.5125 0.0625 -0.05
0.525 0.0625 -0.05
0.5375 0.0625 -0.05
0.55 0.0625 -0.05
0.5625 0.0625 -0.05
0.575 0.0625 -0.05
0.5875 0.0625 -0.05
0.6 0.0625 -0.05
0.0 0.075 -0.05
0.0125 0.075 -0.05
0.025 0.075 -0.05
0.0375 0.075 -0.05
0.05 0.075 -0.05
0.0625 0.075 -0.05
0.075 0.075 -0.05
0.0875 0.075 -0.05
0.1 0.075 -0.05
0.1125 0.075 -0.05
0.125 0.075 -0.05
0.1375 0.075 -0.05
0.15 0.075 -0.05
0.1625 0.075 -0.05
0.175 0.075 -0.05
0.1875 0.075 -0.05
0.2 0.075 -0.05
0.2125 0.075 -0.05
0.225 0.075 -0.05
0.2375 0.075 -0.05
0.25 0.075 -0.05
0.2625 0.075 -0.05
0.275 0.075 -0.05
0.2875 0.075 -0.05
0.3 0.075 -0.05
0.3125 0.075 -0.05
0.325 0.075 -0.05
0.3375 0.075 -0.05
0.35 0.075 -0.05
0.3625 0.075 -0.05
0.375 0.075 -0.05
0.3875 0.075 -0.05
0.4 0.075 -0.05
0.4125 0.075 -0.05
0.425 0.075 -0.05
0.4375 0.075 -0.05
0.45 0.075 -0.05
0.4625 0.075 -0.05
0.475 0.075 -0.05
0.4875 0.075 -0.05
0.5 0.075 -0.05
0.5125 0.075 -0.05
0.525 0.075 -0.05
0.5375 0.075 -0.05
0.55 0.075 -0.05
0.5625 0.075 -0.05
0.575 0.075 -0.05
0.5875 0.075 -0.05
0.6 0.075 -0.05
0.0 0.0875 -0.05
0.0125 0.0875 -0.05
0.025 0.0875 -0.05
0.0375 0.0875 -0.05
0.05 0.0875 -0.05
0.0625 0.0875 -0.05
0.075 0.0875 -0.05
0.0875 0.0875 -0.05
0.1 0.0875 -0.05
0.1125 0.0875 -0.05
0.125 0.0875 -0.05
0.1375 0.0875 -0.05
0.15 0.0875 -0.05
0.1625 0.0875 -0.05
0.175 0.0875 -0.05
0.1875 0.0875 -0.05
0.2 0.0875 -0.05
0.2125 0.0875 -0.05
0.225 0.0875 -0.05
0.2375 0.0875 -0.05
0.25 0.0875 -0.05
0.2625 0.0875 -0.05
0.275 0.0875 -0.05
0.2875 0.0875 -0.05
0.3 0.0875 -0.05
0.3125 0.0875 -0.05
0.325 0.0875 -0.05
0.3375 0.0875 -0.05
0.35 0.0875 -0.05
0.3625 0.0875 -0.05
0.375 0.0875 -0.05
0.3875 0.0875 -0.05
0.4 0.0875 -0.05
0.4125 0.0875 -0.05
0.425 0.0875 -0.05
0.4375 0.0875 -0.05
0.45 0.0875 -0.05
0.4625 0.0875 -0.05
0.475 0.0875 -0.05
0.4875 0.0875 -0.05
0.5 0.0875 -0.05
0.5125 0.0875 -0.05
0.525 0.0875 -0.05
0.5375 0.0875 -0.05
0.55 0.0875 -0.05
0.5625 0.0875 -0.05
0.575 0.0875 -0.05
0.5875 0.0875 -0.05
0.6 0.0875 -0.05
0.0 0.1 -0.05
0.0125 0.1 -0.05
0.025 0.1 -0.05
0.0375 0.1 -0.05
0.05 0.1 -0.05
0.0625 0.1 -0.05
0.075 0.1 -0.05
0.0875 0.1 -0.05
0.1 0.1 -0.05
0.1125 0.1 -0.05
0.125 0.1 -0.05
0.1375 0.1 -0.05
0.15 0.1 -0.05
0.1625 0.1 -0.05
0.175 0.1 -0.05
0.1875 0.1 -0.05
0.2 0.1 -0.05
0.2125 0.1 -0.05
0.225 0.1 -0.05
0.2375 0.1 -0.05
0.25 0.1 -0.05
0.2625 0.1 -0.05
0.275 0.1 -0.05
0.2875 0.1 -0.05
0.3 0.1 -0.05
0.3125 0.1 -0.05
0.325 0.1 -0.05
0.3375 0.1 -0.05
0.35 0.1 -0.05
0.3625 0.1 -0.05
0.375 0.1 -0.05
0.3875 0.1 -0.05
0.4 0.1 -0.05
0.4125 0.1 -0.05
0.425 0.1 -0.05
0.4375 0.1 -0.05
0.45 0.1 -0.05
0.4625 0.1 -0.05
0.475 0.1 -0.05
0.4875 0.1 -0.05
0.5 0.1 -0.05
0.5125 0.1 -0.05
0.525 0.1 -0.05
0.5375 0.1 -0.05
0.55 0.1 -0.05
0.5625 0.1 -0.05
0.575 0.1 -0.05
0.5875 0.1 -0.05
0.6 0.1 -0.05
0.0 0.1125 -0.05
0.0125 0.1125 -0.05
0.025 0.1125 -0.05
0.0375 0.1125 -0.05
0.05 0.1125 -0.05
0.0625 0.1125 -0.05
0.075 0.1125 -0.05
0.0875 0.1125 -0.05
0.1 0.1125 -0.05
0.1125 0.1125 -0.05
0.125 0.1125 -0.05
0.1375 0.1125 -0.05
0.15 0.1125 -0.05
0.1625 0.1125 -0.05
0.175 0.1125 -0.05
0.1875 0.1125 -0.05
0.2 0.1125 -0.05
0.2125 0.1125 -0.05
0.225 0.1125 -0.05
0.2375 0.1125 -0.05
0.25 0.1125 -0.05
0.2625 0.1125 -0.05
0.275 0.1125 -0.05
0.2875 0.1125 -0.05
0.3 0.1125 -0.05
0.3125 0.1125 -0.05
0.325 0.1125 -0.05
0.3375 0.1125 -0.05
0.35 0.1125 -0.05
0.3625 0.1125 -0.05
0.375 0.1125 -0.05
0.3875 0.1125 -0.05
0.4 0.1125 -0.05
0.4125 0.1125 -0.05
0.425 0.1125 -0.05
0.4375 0.1125 -0.05
0.45 0.1125 -0.05
0.4625 0.1125 -0.05
0.475 0.1125 -0.05
0.4875 0.1125 -0.05
0.5 0.1125 -0.05
0.5125 0.1125 -0.05
0.525 0.1125 -0.05
0.5375 0.1125 -0.05
0.55 0.1125 -0.05
0.5625 0.1125 -0.05
0.575 0.1125 -0.05
0.5875 0.1125 -0.05
0.6 0.1125 -0.05
0.0 0.125 -0.05
0.0125 0.125 -0.05
0.025 0.125 -0.05
0.0375 0.125 -0.05
0.05 0.125 -0.05
0.0625 0.125 -0.05
0.075 0.125 -0.05
0.0875 0.125 -0.05
0.1 0.125 -0.05
0.1125 0.125 -0.05
0.125 0.125 -0.05
0.1375 0.125 -0.05
0.15 0.125 -0.05
0.1625 0.125 -0.05
0.175 0.125 -0.05
0.1875 0.125 -0.05
0.2 0.125 -0.05
0.2125 0.125 -0.05
0.225 0.125 -0.05
0.2375 0.125 -0.05
0.25 0.125 -0.05
0.2625 0.125 -0.05
0.275 0.125 -0.05
0.2875 0.125 -0.05
0.3 0.125 -0.05
0.3125 0.125 -0.05
0.325 0.125 -0.05
0.3375 0.125 -0.05
0.35 0.125 -0.05
0.3625 0.125 -0.05
0.375 0.125 -0.05
0.3875 0.125 -0.05
0.4 0.125 -0.05
0.4125 0.125 -0.05
0.425 0.125 -0.05
0.4375 0.125 -0.05
0.45 0.125 -0.05
0.4625 0.125 -0.05
0.475 0.125 -0.05
0.4875 0.125 -0.05
0.5 0.125 -0.05
0.5125 0.125 -0.05
0.525 0.125 -0.05
0.5375 0.125 -0.05
0.55 0.125 -0.05
0.5625 0.125 -0.05
0.575 0.125 -0.05
0.5875 0.125 -0.05
0.6 0.125 -0.05
0.0 0.1375 -0.05
0.0125 0.1375 -0.05
0.025 0.1375 -0.05
0.0375 0.1375 -0.05
0.05 0.1375 -0.05
0.0625 0.1375 -0.05
0.075 0.1375 -0.05
0.0875 0.1375 -0.05
[...]
CELL_DATA 16128
SCALARS P float 1
LOOKUP_TABLE default
100000.00131760549
99999.9977136122
100000.00371309764
99999.9937952642
100000.01002271957
99999.98371927168
100000.02591605624
99999.95897342093
100000.0638799273
99999.90177606342
100000.14819292851
99999.78103077883
100000.31440039292
99999.56564609037
100000.56571335238
99999.33463877377
100000.62201945795
99999.82448771894
99998.74060943222
100005.00497369908
99985.89612170646
100035.83790667253
99911.57033029152
100218.6622986998
99449.98760953147
101419.05136427408
96379.49483144423
109938.04605577586
77412.9562529884
313661.93918624264
834847.5967057637
1.1296137608880645e6
1.1215960630780114e6
1.1363156424993887e6
1.1494674535473383e6
1.1600940442653764e6
1.1712727072751771e6
1.181033109539234e6
1.1902678892381624e6
1.1987165312274196e6
1.2061716412962363e6
1.2132228104402276e6
1.218648745090942e6
1.2245414570020256e6
1.2271378490620728e6
1.2328988639115493e6
1.2304915357698505e6
1.2395365816780052e6
100000.00131152254
99999.99772510814
100000.00369959291
99999.99381703752
100000.00999457036
99999.98376320426
100000.02584694614
99999.95910137046
100000.06361778025
99999.9023526336
100000.1468943851
99999.78392947113
100000.30807638823
99999.5790152776
100000.53844485161
99999.38812075637
100000.5217322917
100000.00292334413
99998.44430067041
100005.4510691611
99985.33355768213
100036.2859329337
99911.98620935029
100215.70588251356
99458.80598278827
101401.27307806344
96401.61207505195
109967.06121601956
77133.8126123321
310010.1183008169
832461.8233065137
1.1334316250334324e6
1.1275328312486087e6
1.142567753946401e6
1.1562058141313042e6
1.1669663971877159e6
1.1782593740659854e6
1.1880857664875167e6
1.197377991828524e6
1.2058786748864495e6
1.2133773665200837e6
1.2204627953566448e6
1.2258985325723272e6
1.2317825051734783e6
1.234316873639404e6
1.2400286112270139e6
1.23745242565854e6
1.2465792304104245e6
100000.00126062376
99999.99780919008
100000.00356811163
99999.99402665236
100000.00967394475
99999.98425134068
100000.02513265268
99999.96011302527
100000.06227766887
99999.90394716707
100000.14543183021
99999.78415782044
100000.3117728652
99999.56535184813
100000.57495328714
99999.30213671859
100000.71081177206
99999.60425290052
99999.26105062007
100003.81047493829
99988.58369582712
100029.92236410294
99924.32926213468
100192.24536274602
99501.89218828717
101328.83655153091
96493.25757140107
109970.61182218633
76436.88996824765
298564.0815769038
817466.064504002
1.1267737101181594e6
1.123736475398257e6
1.137170123455973e6
1.1508236927289285e6
1.161258525832404e6
1.1723742022578414e6
1.1820295457989618e6
1.1911640592660143e6
1.199519045396418e6
1.2068841160210657e6
1.21384907407008e6
1.2191931043746332e6
1.2250083937935773e6
1.2275143100835423e6
1.233241416623438e6
1.2306331359256683e6
1.2399647792351374e6
100000.0011875222
99999.99793040012
100000.00337910536
99999.99432791937
100000.0092140289
99999.98495049066
100000.02411150628
99999.96155787278
100000.06036246728
99999.90624326855
100000.14325668833
99999.78479516476
100000.31611936018
99999.5484086687
100000.62057020419
99999.19511315423
100000.94465376293
99999.11488712473
100000.25832200954
100001.81147362354
99992.55987852384
100022.04467181773
99939.95488638221
100161.51004440483
99561.27796434655
101220.79865215809
96654.77968560894
109847.57880030584
75797.79727254818
282114.7698979069
797442.291974586
1.1219295093038438e6
1.1244824906639887e6
1.1363930147635476e6
1.1507003988440812e6
1.1610996134410743e6
1.1722959050064469e6
1.1819843429418246e6
1.1911446591430726e6
1.1995285341840833e6
1.206926108657706e6
1.2139280301274243e6
1.2193162835985695e6
1.225176571848639e6
1.2277133221685519e6
1.2335049184662628e6
1.230811026618601e6
1.240409997951982e6
100000.00109539175
99999.99808342154
100000.00314008865
99999.99470978079
100000.00862893528
99999.98584458214
100000.02279407569
99999.96344850764
100000.05779005107
99999.9094908761
100000.13973193636
99999.78730051836
100000.3179354805
99999.53478840433
100000.66192771489
99999.09325052676
100001.17279122023
99998.62942401071
100001.26160759373
99999.76640951015
99996.7176808675
100013.54688801774
99957.52557180107
100124.95435034676
99637.21224129858
101067.07909737695
96931.8846785825
109416.09394466097
75706.74870283902
260477.42834298237
768828.4472920205
1.1125194013858489e6
1.1229989043545409e6
1.1321899753379694e6
1.1468950576736496e6
1.1569169598844047e6
1.167919147003048e6
1.1774037482457787e6
1.186362544799307e6
1.194559658187785e6
1.201779519870044e6
1.2086143292186852e6
1.2138574106361705e6
1.219589681000237e6
1.222013154767683e6
1.2277609860591046e6
1.224904180118156e6
1.2347937627805155e6
100000.0009883705
99999.99826143209
100000.00286106781
99999.9951571358
100000.00793971767
99999.98690586185
100000.0212122085
99999.96575968288
100000.05455142219
99999.91380334782
100000.13449318057
99999.79261346279
100000.31507469999
99999.52915137332
100000.68939394646
99999.01606517995
100001.35673317657
99998.22323544972
100002.12560174649
99997.95476761505
100000.52677400844
100005.41769221505
99975.27683249419
100085.39190485627
99726.47322230368
100865.6946854277
97357.10039591891
108515.00738854696
76708.45189608773
234911.42540383147
732575.7084371313
1.100112821651202e6
1.122362769658763e6
1.128414899678497e6
1.1438180366468683e6
1.1536129153918026e6
1.1645413545063764e6
1.1739354827822053e6
1.1827902970706858e6
1.1908989284398304e6
1.1980408722987254e6
1.2048135910942478e6
1.2100203831532863e6
1.2157362480578579e6
1.2181451910140323e6
1.2239468712331052e6
1.2209651889813836e6
1.2312584797849979e6
100000.00087086708
99999.99845719578
100000.00255290302
99999.99565307425
100000.00717114756
99999.98809799983
100000.0194160301
99999.96842464703
100000.05072562526
99999.91910183048
100000.12757271707
99999.80084407299
100000.30704223906
99999.53285297877
100000.69965074272
99998.97102832209
100001.47985392004
99997.93247166481
100002.7708186213
99996.55037075913
100003.60341020243
99998.4927693542
99991.42212663381
100046.38260697362
99822.73968963463
100624.36335971754
97934.94153920123
107052.39362038371
79266.43078558017
206409.17103030125
687905.6025496146
1.082523925894852e6
1.1211046678590674e6
1.123305980906222e6
1.139268634167812e6
1.1487056464267673e6
1.1593866624305472e6
1.1685433994012054e6
1.1771329981547797e6
1.1849883283378992e6
1.191875448312878e6
1.1983962543197696e6
1.2033650402941345e6
1.2088553595634967e6
1.2110424102750688e6
1.216727433589737e6
1.213444478462801e6
1.2241683653381509e6
100000.00074723025
99999.99866378655
100000.00222623452
99999.99618100277
100000.00634844635
99999.9893824
100000.01746409757
99999.97135422693
100000.04645012529
99999.92517255676
100000.11931428411
99999.81143252694
100000.29478739473
99999.54428708639
100000.6954640552
99998.9536068903
100001.5491999916
99997.7483458449
100003.20237093439
99995.57579694387
100005.82408749973
99993.2116717787
100004.65026397018
100011.45796796061
99917.41609866067
100361.63002655124
98635.65037450033
105062.91933120985
83608.46144587743
176425.8068187635
634963.3575225344
1.058801930426127e6
1.1196581653389572e6
1.117785305249962e6
1.1342346148123068e6
1.1433938273255352e6
1.1538087723934627e6
1.1627428788882422e6
1.171072190532287e6
1.1786913633403475e6
1.1853560882726759e6
1.1916801193557328e6
1.1964976607232161e6
1.201874275578254e6
1.2039763890471754e6
1.2097080393207716e6
1.2062159158336632e6
1.217541098432148e6
100000.000621384
99999.99887519501
100000.00189026208
99999.99672680242
100000.00549273493
99999.99072669007
100000.0154055375
99999.97447060942
100000.04185120141
99999.93179674435
100000.11011400436
99999.82361682769
100000.27981321499
99999.56040430821
100000.68299423171
99998.95136797061
100001.58924292879
99997.62389344853
100003.50584606464
99994.8865517948
100007.39686819265
99989.39206940282
100014.69253902187
99982.87181351558
100001.85038998125
100105.13130893114
99389.90228994758
102740.72574290057
89557.8124513749
146690.0752033891
573983.0369400338
1.0271134294374174e6
1.1173589209207748e6
1.111660133449994e6
1.1282054605806367e6
1.1370910625870991e6
1.1470848758310743e6
1.1556749229463916e6
1.1635895702213305e6
1.1707940631633024e6
1.1770180918156868e6
1.182880165033079e6
1.187216969242934e6
1.1921022029930253e6
1.1936816744833242e6
1.1990634114580452e6
1.1949198007967803e6
1.2068375568961038e6
100000.00049676871
99999.9990864799
100000.00155233932
99999.99727994292
100000.00461853764
99999.99211108674
100000.01326624202
99999.97773966103
100000.03697601907
99999.93890005609
100000.10011729648
99999.83706762944
100000.26293558291
99999.57919562985
100000.66713078618
99998.95285810012
100001.62604986105
99997.50203857741
100003.8017323524
99994.240837856
100008.77523769652
99986.28540211236
100022.4749376524
99960.70831804282
100070.18499388821
99883.70730124837
100098.28734565756
100424.96947860147
96387.80863844903
119368.24012121021
505898.6763524487
985628.8065614271
1.1135240256033184e6
1.1053211237386693e6
1.121355381152818e6
1.1300668911606066e6
1.1395380495195137e6
1.1477363533222922e6
1.1551856692191453e6
1.1619455189508188e6
1.1677346876296173e6
1.1731962808602776e6
1.177193197776675e6
1.1818175692569274e6
1.1832150844604615e6
1.188625318598668e6
1.1841807826371999e6
1.1970074239829574e6
100000.00037646451
99999.99929332561
100000.00121854867
99999.99783236293
100000.0037350845
99999.99352691964
100000.01104821128
99999.98117759806
100000.03176552613
99999.9466267225
100000.08902184966
99999.85234706785
100000.24320909755
99999.602022821
100000.64640754837
99998.95815067171
100001.66546950716
99997.35896718244
100004.1607314143
99993.45769330577
100010.37786540555
99983.02790173095
100029.52080821201
99943.25745065339
100120.64417070374
99719.93172620208
100655.17184765924
98517.33127475172
102830.9384088508
96995.73195520451
432442.54341526784
932308.3303729097
1.1067094936370142e6
1.0989502264927295e6
1.1135373397904707e6
1.122163315644281e6
1.1309468593805165e6
1.1386059906678782e6
1.1453914221928925e6
1.1514430791046047e6
1.1564365102171707e6
1.1610049149430157e6
1.163978192612647e6
1.1674696318490596e6
1.1675429252751092e6
1.171838408005251e6
1.1657182810134552e6
1.179221607988435e6
100000.00026356558
99999.99949110714
100000.00089539855
99999.99837523393
100000.00285238022
99999.9949658998
100000.00874854822
99999.98481979441
100000.02610440843
99999.95526975911
100000.07616334037
99999.87086286397
100000.21780163853
99999.63436034348
100000.6106752526
99998.98528903717
100001.67713550017
99997.24199776142
100004.51806715393
99992.60248936276
100012.2013461111
99979.39441526524
100036.5884217298
99929.00678408667
100153.87087358178
99625.4704490125
100980.09871372882
97354.11762367954
107368.38249044395
82090.6242788434
356341.1187350848
865398.545142796
1.0947771711688745e6
1.0927818766047698e6
1.104772431010133e6
1.113435446561306e6
1.1214213545795847e6
1.1284544084386185e6
1.13449836758349e6
1.1397889585879322e6
1.1440057676848697e6
1.1478085737361892e6
1.150101696840876e6
1.1530303175446442e6
1.1527451851648795e6
1.1569545755946413e6
1.150515430481097e6
1.1652445753515768e6
100000.00016148352
99999.99967396323
100000.00059171645
99999.99889485321
100000.00198958997
99999.9964031573
100000.00639285652
99999.98865595044
100000.0199441197
99999.96504089751
100000.06093298293
99999.89412202591
100000.18326484389
99999.6836924599
100000.54427244242
99999.06599465376
100001.59854068178
99997.27061192815
100004.65279259604
99992.06644721978
100013.5928117469
99976.37929461476
100042.37284088806
99919.22044827577
100168.96556101396
99602.80593269772
101040.80900976129
97095.97532051012
108849.12449951789
76254.10308400929
281171.60486723477
783944.0421249127
1.0748159981795354e6
1.0868657881427258e6
1.0950727763738513e6
1.1038120358023944e6
1.110867787022261e6
1.1170799896924135e6
1.122118800544516e6
1.1262543715634241e6
1.129096032109321e6
1.1312291070666194e6
1.131422643731268e6
1.1317867248664764e6
1.128103096201979e6
1.1288650365298402e6
1.1172769182496285e6
1.1320121497012344e6
100000.00007400052
99999.99983450281
100000.00031965184
99999.99937011045
100000.00118133996
99999.99778279968
100000.00406732754
99999.99256070872
100000.01344887154
99999.9757683985
100000.04339193246
99999.9225047701
100000.13795628723
99999.75484172555
100000.43496306981
99999.22906697882
100001.36539714273
99997.58308630757
100004.27785797458
99992.42535620222
100013.44439444033
99975.99300988158
100043.52011369453
99918.57889774503
100161.65405809866
99647.73543557637
100866.3097027833
97647.41823171226
107270.39214638872
79180.11311012131
211061.1446957007
688289.9927900945
1.0432905647950659e6
1.080964186054203e6
1.0846395076879642e6
1.0933385255237496e6
1.099408480860348e6
1.1046728053600946e6
1.1086081641753488e6
1.111519915892561e6
1.1130299068255818e6
1.1137462349829264e6
1.1125835112800219e6
1.1116554568179715e6
1.1072011781977077e6
1.10712587277036e6
1.0956180433627781e6
1.1096602848316368e6
100000.0000048102
99999.99996467066
100000.00009359319
99999.99977389141
100000.00047677202
99999.99901652736
100000.00192796787
99999.99626363856
100000.00707807082
99999.98669319626
100000.02475099378
99999.9541780031
100000.08442168748
99999.84482001243
100000.28475078223
99999.47780405154
100000.95752252253
99998.24389596794
100003.22172968916
99994.08977884066
100010.84129396189
99980.12361110866
100036.49070689875
99932.64356876921
100126.73171810164
99750.66512731665
100537.72487472568
98682.51541995918
103858.56303252418
88262.29287044513
150803.25138505915
580500.4929422874
995984.0890626424
1.0740699436061273e6
1.0737907702410216e6
1.0820047459352498e6
1.0870334570421854e6
1.0911191530464205e6
1.0936495112991948e6
1.094846673009351e6
1.094202714975268e6
1.092109974730782e6
1.0870738307458854e6
1.0807754811387083e6
1.0680603238129467e6
1.0575892391898541e6
1.0276902049801293e6
1.0349486512894805e6
99999.99995662604
100000.00005776985
99999.99992678105
100000.00007930896
99999.99992883939
100000.00000169061
100000.00017127827
99999.99939358479
100000.00152469032
99999.99653613157
100000.00734305335
99999.98494077892
100000.03011961536
99999.94061840913
100000.11587314263
99999.7753140087
100000.43390037818
99999.16447889696
100001.60526320324
99996.92601216781
100005.85840659827
99988.93648061194
100020.59333417517
99962.60751200093
100065.30009009392
99892.57827646488
100160.60156846474
99781.5552766496
100319.6398596268
99021.87507601862
105955.37928555206
465150.17652501556
928290.9441600575
1.0637227706934605e6
1.0629260389305493e6
1.0698731092265504e6
1.0738916407739345e6
1.076657175016869e6
1.0776716467802394e6
1.0770597458534862e6
1.074303215843203e6
1.0697198436999286e6
1.0619791292866278e6
1.0525814682728823e6
1.037735516950944e6
1.0229685184297542e6
994571.6993934502
960899.0375187248
99999.99993012114
100000.00011095879
99999.99982659699
100000.00026901487
99999.9995763575
100000.00065547386
99999.99896984943
100000.00159865161
99999.99749542116
100000.00389605656
99999.9939173563
100000.00944681429
99999.98536183998
100000.02249041131
99999.96584709275
100000.0508157996
99999.92684283308
100000.09972505295
99999.8768177709
100000.12513870369
99999.92958115121
99999.93671032427
100000.12151008383
100001.00070831197
99991.73999236031
100040.14486169633
99836.97917254055
100586.91805602377
98010.02527175739
106501.92510355977
81263.97070304
349775.2554412248
836769.0529632085
1.0455986942559583e6
1.052315059374597e6
1.057002698418049e6
1.0600537270081034e6
1.061346348941152e6
1.0606244594739566e6
1.0578330764093136e6
1.0522791045302663e6
1.0438719952501642e6
1.0305891919100916e6
1.012271424155003e6
981949.272217247
937968.3655526468
849805.3443309538
694486.1107130978
99999.99992323502
100000.00012706156
99999.99979069742
100000.00034351354
99999.99942661727
100000.00095083643
99999.99839913577
100000.00269396673
99999.99541502156
100000.00783599762
99999.98648488989
100000.0234614465
99999.95893823623
100000.07238589879
99999.87142512052
100000.23001241653
99999.5856463475
100000.75149103736
99998.62805946205
100002.5224100507
99995.32538717847
100008.75946770523
99983.31765255348
100032.63893202606
99933.29623708273
100145.37453196132
99653.95181160285
100903.54081257145
97440.10012975585
107951.916533667
76938.36206535723
243673.61385617632
721112.4112363161
1.013842868956822e6
1.041953230646283e6
1.0436377459595588e6
1.0456957755003225e6
1.0454555269362022e6
1.0429221154303144e6
1.0378831245847221e6
1.0295142760123193e6
1.0174497028441769e6
999353.8453294637
974384.8533265482
935293.4705314107
879028.6751374162
780624.6484043332
621113.7554628099
99999.99993125821
100000.0001145906
99999.99980615455
100000.0003237761
99999.99944793478
100000.00093472326
99999.99839445736
100000.00275881996
99999.99521163481
100000.00834924172
99999.98532136618
100000.02597526014
99999.95367950687
100000.08320678481
99999.84940490725
100000.27461527797
99999.49554796338
100000.9334977178
99998.2605755233
100003.26362067582
99993.83816615531
100011.70918194827
99977.61176897543
100043.14100177816
99915.97084931053
100166.72059228588
99657.95666826704
100743.27895519271
98244.13343094914
104750.3887264302
86663.1396788915
156806.77824051978
585144.7675740733
960915.3485073675
1.0306762893245914e6
1.030203682510775e6
1.031028856285787e6
1.0292552924311091e6
1.0249049972375263e6
1.0176674151865309e6
1.0066224275210045e6
991253.4932009835
969108.8075653829
939233.0690748406
894743.4179373181
833847.115406943
736295.1878061297
600235.3942752146
99999.99994786861
100000.00008567284
99999.99985263705
100000.00024593844
99999.99957788801
100000.00071598917
99999.99876723246
100000.00211974343
99999.99632173311
100000.00640456706
99999.9887682207
100000.01980512866
99999.96483818298
100000.06282733656
99999.88694819999
100000.20484191019
99999.62612781124
100000.6872839005
99998.72745516237
100002.37212894668
99995.55158010486
100008.38106039067
99984.17717400688
100029.82750741969
99944.23870373575
100102.41307951859
99818.31177008386
100302.21386536479
99554.9994498658
100499.89931329821
99929.60462793919
99464.23473717432
438697.706145692
878442.7778833932
1.0144628038994526e6
1.0169514645962698e6
1.0161976959007382e6
1.0129978484993861e6
1.0069292909248482e6
997679.2987999681
984282.8750820331
966202.2868314922
941020.3940461181
908046.0395956319
860960.7080467867
799953.9390780798
708130.6580566985
594447.0722154774
99999.99996672742
100000.00005261318
99999.9999084511
100000.00014982809
99999.99974435802
100000.00042631685
99999.99927694359
100000.0012180528
99999.99793338642
100000.00350344589
99999.99404016328
100000.01014933745
99999.9826831232
100000.02958635602
99999.94940470255
100000.08660118603
99999.85180103539
100000.25355663027
99999.56717416065
100000.73649375125
99998.75712236765
100002.06777331703
99996.67127569266
100004.99328386692
99993.8783964122
100002.25813583011
100024.04813969067
99863.55450985405
100551.76746440935
97976.7149834232
107186.94349839695
77121.51478115108
297736.2124004609
761628.7582106093
986215.4687111564
1.0038815487213152e6
1.0013885424783506e6
996900.9326470041
989289.680809894
978290.3195329062
962947.5346629336
942786.230119507
915538.2062936138
880884.751795988
833254.6054331705
774271.1449760153
690323.3140531802
593773.0955048951
99999.99998302627
100000.00002461585
99999.9999567484
100000.0000667665
99999.99988924267
100000.00017385586
99999.99972155731
100000.00043231877
99999.99933319615
100000.00099482614
99999.9985678321
100000.0019198326
99999.99774404099
100000.00181328834
100000.00097467972
99999.99008831102
100000.03369070635
99999.90805220242
100000.22793204352
99999.4636244827
100001.2229233862
99997.26732850439
100006.03342740856
99986.76505661011
100029.04380654464
99935.78715421981
100144.49732518329
99663.90505683832
100819.37367393049
97866.22655530035
106091.94824469379
82534.44735682405
180387.84523139778
612898.231265531
935777.7894799772
990073.7152911898
987005.0369850988
981250.1949617451
972276.4046854962
959801.5154376612
942924.5316550611
921263.0818152275