# vtk DataFile Version 2.0
JuliaCFD
ASCII
DATASET UNSTRUCTURED_GRID

POINTS 32898 float
0.0 0.0 -0.05
0.0125 0.0 -0.05
0.025 0.0 -0.05
0.0375 0.0 -0.05
0.05 0.0 -0.05
0.0625 0.0 -0.05
0.075 0.0 -0.05
0.0875 0.0 -0.05
0.1 0.0 -0.05
0.1125 0.0 -0.05
0.125 0.0 -0.05
0.1375 0.0 -0.05
0.15 0.0 -0.05
0.1625 0.0 -0.05
0.175 0.0 -0.05
0.1875 0.0 -0.05
0.2 0.0 -0.05
0.2125 0.0 -0.05
0.225 0.0 -0.05
0.2375 0.0 -0.05
0.25 0.0 -0.05
0.2625 0.0 -0.05
0.275 0.0 -0.05
0.2875 0.0 -0.05
0.3 0.0 -0.05
0.3125 0.0 -0.05
0.325 0.0 -0.05
0.3375 0.0 -0.05
0.35 0.0 -0.05
0.3625 0.0 -0.05
0.375 0.0 -0.05
0.3875 0.0 -0.05
0.4 0.0 -0.05
0.4125 0.0 -0.05
0.425 0.0 -0.05
0.4375 0.0 -0.05
0.45 0.0 -0.05
0.4625 0.0 -0.05
0.475 0.0 -0.05
0.4875 0.0 -0.05
0.5 0.0 -0.05
0.5125 0.0 -0.05
0.525 0.0 -0.05
0.5375 0.0 -0.05
0.55 0.0 -0.05
0.5625 0.0 -0.05
0.575 0.0 -0.05
0.5875 0.0 -0.05
0.6 0.0 -0.05
0.0 0.0125 -0.05
0.0125 0.0125 -0.05
0.025 0.0125 -0.05
0.0375 0.0125 -0.05
0.05 0.0125 -0.05
0.0625 0.0125 -0.05
0.075 0.0125 -0.05
0.0875 0.0125 -0.05
0.1 0.0125 -0.05
0.1125 0.0125 -0.05
0.125 0.0125 -0.05
0.1375 0.0125 -0.05
0.15 0.0125 -0.05
0.1625 0.0125 -0.05
0.175 0.0125 -0.05
0.1875 0.0125 -0.05
0.2 0.0125 -0.05
0.2125 0.0125 -0.05
0.225 0.0125 -0.05
0.2375 0.0125 -0.05
0.25 0.0125 -0.05
0.2625 0.0125 -0.05
0.275 0.0125 -0.05
0.2875 0.0125 -0.05
0.3 0.0125 -0.05
0.3125 0.0125 -0.05
0.325 0.0125 -0.05
0.3375 0.0125 -0.05
0.35 0.0125 -0.05
0.3625 0.0125 -0.05
0.375 0.0125 -0.05
0.3875 0.0125 -0.05
0.4 0.0125 -0.05
0.4125 0.0125 -0.05
0.425 0.0125 -0.05
0.4375 0.0125 -0.05
0.45 0.0125 -0.05
0.4625 0.0125 -0.05
0.475 0.0125 -0.05
0.4875 0.0125 -0.05
0.5 0.0125 -0.05
0.5125 0.0125 -0.05
0.525 0.0125 -0.05
0.5375 0.0125 -0.05
0.55 0.0125 -0.05
0.5625 0.0125 -0.05
0.575 0.0125 -0.05
0.5875 0.0125 -0.05
0.6 0.0125 -0.05
0.0 0.025 -0.05
0.0125 0.025 -0.05
0.025 0.025 -0.05
0.0375 0.025 -0.05
0.05 0.025 -0.05
0.0625 0.025 -0.05
0.075 0.025 -0.05
0.0875 0.025 -0.05
0.1 0.025 -0.05
0.1125 0.025 -0.05
0.125 0.025 -0.05
0.1375 0.025 -0.05
0.15 0.025 -0.05
0.1625 0.025 -0.05
0.175 0.025 -0.05
0.1875 0.025 -0.05
0.2 0.025 -0.05
0.2125 0.025 -0.05
0.225 0.025 -0.05
0.2375 0.025 -0.05
0.25 0.025 -0.05
0.2625 0.025 -0.05
0.275 0.025 -0.05
0.2875 0.025 -0.05
0.3 0.025 -0.05
0.3125 0.025 -0.05
0.325 0.025 -0.05
0.3375 0.025 -0.05
0.35 0.025 -0.05
0.3625 0.025 -0.05
0.375 0.025 -0.05
0.3875 0.025 -0.05
0.4 0.025 -0.05
0.4125 0.025 -0.05
0.425 0.025 -0.05
0.4375 0.025 -0.05
0.45 0.025 -0.05
0.4625 0.025 -0.05
0.475 0.025 -0.05
0.4875 0.025 -0.05
0.5 0.025 -0.05
0.5125 0.025 -0.05
0.525 0.025 -0.05
0.5375 0.025 -0.05
0.55 0.025 -0.05
0.5625 0.025 -0.05
0.575 0.025 -0.05
0.5875 0.025 -0.05
0.6 0.025 -0.05
0.0 0.0375 -0.05
0.0125 0.0375 -0.05
0.025 0.0375 -0.05
0.0375 0.0375 -0.05
0.05 0.0375 -0.05
0.0625 0.0375 -0.05
0.075 0.0375 -0.05
0.0875 0.0375 -0.05
0.1 0.0375 -0.05
0.1125 0.0375 -0.05
0.125 0.0375 -0.05
0.1375 0.0375 -0.05
0.15 0.0375 -0.05
0.1625 0.0375 -0.05
0.175 0.0375 -0.05
0.1875 0.0375 -0.05
0.2 0.0375 -0.05
0.2125 0.0375 -0.05
0.225 0.0375 -0.05
0.2375 0.0375 -0.05
0.25 0.0375 -0.05
0.2625 0.0375 -0.05
0.275 0.0375 -0.05
0.2875 0.0375 -0.05
0.3 0.0375 -0.05
0.3125 0.0375 -0.05
0.325 0.0375 -0.05
0.3375 0.0375 -0.05
0.35 0.0375 -0.05
0.3625 0.0375 -0.05
0.375 0.0375 -0.05
0.3875 0.0375 -0.05
0.4 0.0375 -0.05
0.4125 0.0375 -0.05
0.425 0.0375 -0.05
0.4375 0.0375 -0.05
0.45 0.0375 -0.05
0.4625 0.0375 -0.05
0.475 0.0375 -0.05
0.4875 0.0375 -0.05
0.5 0.0375 -0.05
0.5125 0.0375 -0.05
0.525 0.0375 -0.05
0.5375 0.0375 -0.05
0.55 0.0375 -0.05
0.5625 0.0375 -0.05
0.575 0.0375 -0.05
0.5875 0.0375 -0.05
0.6 0.0375 -0.05
0.0 0.05 -0.05
0.0125 0.05 -0.05
0.025 0.05 -0.05
0.0375 0.05 -0.05
0.05 0.05 -0.05
0.0625 0.05 -0.05
0.075 0.05 -0.05
0.0875 0.05 -0.05
0.1 0.05 -0.05
0.1125 0.05 -0.05
0.125 0.05 -0.05
0.1375 0.05 -0.05
0.15 0.05 -0.05
0.1625 0.05 -0.05
0.175 0.05 -0.05
0.1875 0.05 -0.05
0.2 0.05 -0.05
0.2125 0.05 -0.05
0.225 0.05 -0.05
0.2375 0.05 -0.05
0.25 0.05 -0.05
0.2625 0.05 -0.05
0.275 0.05 -0.05
0.2875 0.05 -0.05
0.3 0.05 -0.05
0.3125 0.05 -0.05
0.325 0.05 -0.05
0.3375 0.05 -0.05
0.35 0.05 -0.05
0.3625 0.05 -0.05
0.375 0.05 -0.05
0.3875 0.05 -0.05
0.4 0.05 -0.05
0.4125 0.05 -0.05
0.425 0.05 -0.05
0.4375 0.05 -0.05
0.45 0.05 -0.05
0.4625 0.05 -0.05
0.475 0.05 -0.05
0.4875 0.05 -0.05
0.5 0.05 -0.05
0.5125 0.05 -0.05
0.525 0.05 -0.05
0.5375 0.05 -0.05
0.55 0.05 -0.05
0.5625 0.05 -0.05
0.575 0.05 -0.05
0.5875 0.05 -0.05
0.6 0.05 -0.05
0.0 0.0625 -0.05
0.0125 0.0625 -0.05
0.025 0.0625 -0.05
0.0375 0.0625 -0.05
0.05 0.0625 -0.05
0.0625 0.0625 -0.05
0.075 0.0625 -0.05
0.0875 0.0625 -0.05
0.1 0.0625 -0.05
0.1125 0.0625 -0.05
0.125 0.0625 -0.05
0.1375 0.0625 -0.05
0.15 0.0625 -0.05
0.1625 0.0625 -0.05
0.175 0.0625 -0.05
0.1875 0.0625 -0.05
0.2 0.0625 -0.05
0.2125 0.0625 -0.05
0.225 0.0625 -0.05
0.2375 0.0625 -0.05
0.25 0.0625 -0.05
0.2625 0.0625 -0.05
0.275 0.0625 -0.05
0.2875 0.0625 -0.05
0.3 0.0625 -0.05
0.3125 0.0625 -0.05
0.325 0.0625 -0.05
0.3375 0.0625 -0.05
0.35 0.0625 -0.05
0.3625 0.0625 -0.05
0.375 0.0625 -0.05
0.3875 0.0625 -0.05
0.4 0.0625 -0.05
0.4125 0.0625 -0.05
0.425 0.0625 -0.05
0.4375 0.0625 -0.05
0.45 0.0625 -0.05
0.4625 0.0625 -0.05
0.475 0.0625 -0.05
0.4875 0.0625 -0.05
0.5 0.0625 -0.05
0.5125 0.0625 -0.05
0.525 0.0625 -0.05
0.5375 0.0625 -0.05
0.55 0.0625 -0.05
0.5625 0.0625 -0.05
0.575 0.0625 -0.05
0.5875 0.0625 -0.05
0.6 0.0625 -0.05
0.0 0.075 -0.05
0.0125 0.075 -0.05
0.025 0.075 -0.05
0.0375 0.075 -0.05
0.05 0.075 -0.05
0.0625 0.075 -0.05
0.075 0.075 -0.05
0.0875 0.075 -0.05
0.1 0.075 -0.05
0.1125 0.075 -0.05
0.125 0.075 -0.05
0.1375 0.075 -0.05
0.15 0.075 -0.05
0.1625 0.075 -0.05
0.175 0.075 -0.05
0.1875 0.075 -0.05
0.2 0.075 -0.05
0.2125 0.075 -0.05
0.225 0.075 -0.05
0.2375 0.075 -0.05
0.25 0.075 -0.05
0.2625 0.075 -0.05
0.275 0.075 -0.05
0.2875 0.075 -0.05
0.3 0.075 -0.05
0.3125 0.075 -0.05
0.325 0.075 -0.05
0.3375 0.075 -0.05
0.35 0.075 -0.05
0.3625 0.075 -0.05
0.375 0.075 -0.05
0.3875 0.075 -0.05
0.4 0.075 -0.05
0.4125 0.075 -0.05
0.425 0.075 -0.05
0.4375 0.075 -0.05
0.45 0.075 -0.05
0.4625 0.075 -0.05
0.475 0.075 -0.05
0.4875 0.075 -0.05
0.5 0.075 -0.05
0.5125 0.075 -0.05
0.525 0.075 -0.05
0.5375 0.075 -0.05
0.55 0.075 -0.05
0.5625 0.075 -0.05
0.575 0.075 -0.05
0.5875 0.075 -0.05
0.6 0.075 -0.05
0.0 0.0875 -0.05
0.0125 0.0875 -0.05
0.025 0.0875 -0.05
0.0375 0.0875 -0.05
0.05 0.0875 -0.05
0.0625 0.0875 -0.05
0.075 0.0875 -0.05
0.0875 0.0875 -0.05
0.1 0.0875 -0.05
0.1125 0.0875 -0.05
0.125 0.0875 -0.05
0.1375 0.0875 -0.05
0.15 0.0875 -0.05
0.1625 0.0875 -0.05
0.175 0.0875 -0.05
0.1875 0.0875 -0.05
0.2 0.0875 -0.05
0.2125 0.0875 -0.05
0.225 0.0875 -0.05
0.2375 0.0875 -0.05
0.25 0.0875 -0.05
0.2625 0.0875 -0.05
0.275 0.0875 -0.05
0.2875 0.0875 -0.05
0.3 0.0875 -0.05
0.3125 0.0875 -0.05
0.325 0.0875 -0.05
0.3375 0.0875 -0.05
0.35 0.0875 -0.05
0.3625 0.0875 -0.05
0.375 0.0875 -0.05
0.3875 0.0875 -0.05
0.4 0.0875 -0.05
0.4125 0.0875 -0.05
0.425 0.0875 -0.05
0.4375 0.0875 -0.05
0.45 0.0875 -0.05
0.4625 0.0875 -0.05
0.475 0.0875 -0.05
0.4875 0.0875 -0.05
0.5 0.0875 -0.05
0.5125 0.0875 -0.05
0.525 0.0875 -0.05
0.5375 0.0875 -0.05
0.55 0.0875 -0.05
0.5625 0.0875 -0.05
0.575 0.0875 -0.05
0.5875 0.0875 -0.05
0.6 0.0875 -0.05
0.0 0.1 -0.05
0.0125 0.1 -0.05
0.025 0.1 -0.05
0.0375 0.1 -0.05
0.05 0.1 -0.05
0.0625 0.1 -0.05
0.075 0.1 -0.05
0.0875 0.1 -0.05
0.1 0.1 -0.05
0.1125 0.1 -0.05
0.125 0.1 -0.05
0.1375 0.1 -0.05
0.15 0.1 -0.05
0.1625 0.1 -0.05
0.175 0.1 -0.05
0.1875 0.1 -0.05
0.2 0.1 -0.05
0.2125 0.1 -0.05
0.225 0.1 -0.05
0.2375 0.1 -0.05
0.25 0.1 -0.05
0.2625 0.1 -0.05
0.275 0.1 -0.05
0.2875 0.1 -0.05
0.3 0.1 -0.05
0.3125 0.1 -0.05
0.325 0.1 -0.05
0.3375 0.1 -0.05
0.35 0.1 -0.05
0.3625 0.1 -0.05
0.375 0.1 -0.05
0.3875 0.1 -0.05
0.4 0.1 -0.05
0.4125 0.1 -0.05
0.425 0.1 -0.05
0.4375 0.1 -0.05
0.45 0.1 -0.05
0.4625 0.1 -0.05
0.475 0.1 -0.05
0.4875 0.1 -0.05
0.5 0.1 -0.05
0.5125 0.1 -0.05
0.525 0.1 -0.05
0.5375 0.1 -0.05
0.55 0.1 -0.05
0.5625 0.1 -0.05
0.575 0.1 -0.05
0.5875 0.1 -0.05
0.6 0.1 -0.05
0.0 0.1125 -0.05
0.0125 0.1125 -0.05
0.025 0.1125 -0.05
0.0375 0.1125 -0.05
0.05 0.1125 -0.05
0.0625 0.1125 -0.05
0.075 0.1125 -0.05
0.0875 0.1125 -0.05
0.1 0.1125 -0.05
0.1125 0.1125 -0.05
0.125 0.1125 -0.05
0.1375 0.1125 -0.05
0.15 0.1125 -0.05
0.1625 0.1125 -0.05
0.175 0.1125 -0.05
0.1875 0.1125 -0.05
0.2 0.1125 -0.05
0.2125 0.1125 -0.05
0.225 0.1125 -0.05
0.2375 0.1125 -0.05
0.25 0.1125 -0.05
0.2625 0.1125 -0.05
0.275 0.1125 -0.05
0.2875 0.1125 -0.05
0.3 0.1125 -0.05
0.3125 0.1125 -0.05
0.325 0.1125 -0.05
0.3375 0.1125 -0.05
0.35 0.1125 -0.05
0.3625 0.1125 -0.05
0.375 0.1125 -0.05
0.3875 0.1125 -0.05
0.4 0.1125 -0.05
0.4125 0.1125 -0.05
0.425 0.1125 -0.05
0.4375 0.1125 -0.05
0.45 0.1125 -0.05
0.4625 0.1125 -0.05
0.475 0.1125 -0.05
0.4875 0.1125 -0.05
0.5 0.1125 -0.05
0.5125 0.1125 -0.05
0.525 0.1125 -0.05
0.5375 0.1125 -0.05
0.55 0.1125 -0.05
0.5625 0.1125 -0.05
0.575 0.1125 -0.05
0.5875 0.1125 -0.05
0.6 0.1125 -0.05
0.0 0.125 -0.05
0.0125 0.125 -0.05
0.025 0.125 -0.05
0.0375 0.125 -0.05
0.05 0.125 -0.05
0.0625 0.125 -0.05
0.075 0.125 -0.05
0.0875 0.125 -0.05
0.1 0.125 -0.05
0.1125 0.125 -0.05
0.125 0.125 -0.05
0.1375 0.125 -0.05
0.15 0.125 -0.05
0.1625 0.125 -0.05
0.175 0.125 -0.05
0.1875 0.125 -0.05
0.2 0.125 -0.05
0.2125 0.125 -0.05
0.225 0.125 -0.05
0.2375 0.125 -0.05
0.25 0.125 -0.05
0.2625 0.125 -0.05
0.275 0.125 -0.05
0.2875 0.125 -0.05
0.3 0.125 -0.05
0.3125 0.125 -0.05
0.325 0.125 -0.05
0.3375 0.125 -0.05
0.35 0.125 -0.05
0.3625 0.125 -0.05
0.375 0.125 -0.05
0.3875 0.125 -0.05
0.4 0.125 -0.05
0.4125 0.125 -0.05
0.425 0.125 -0.05
0.4375 0.125 -0.05
0.45 0.125 -0.05
0.4625 0.125 -0.05
0.475 0.125 -0.05
0.4875 0.125 -0.05
0.5 0.125 -0.05
0.5125 0.125 -0.05
0.525 0.125 -0.05
0.5375 0.125 -0.05
0.55 0.125 -0.05
0.5625 0.125 -0.05
0.575 0.125 -0.05
0.5875 0.125 -0.05
0.6 0.125 -0.05
0.0 0.1375 -0.05
0.0125 0.1375 -0.05
0.025 0.1375 -0.05
0.0375 0.1375 -0.05
0.05 0.1375 -0.05
0.0625 0.1375 -0.05
0.075 0.1375 -0.05
0.0875 0.1375 -0.05
[...]
CELL_DATA 16128
SCALARS P float 1
LOOKUP_TABLE default
100000.00355617101
99999.99333644392
100000.01079868086
99999.98090660221
100000.03205456093
99999.9444949242
100000.0945235156
99999.83716180564
100000.27966146388
99999.51627379503
100000.84060924189
99998.52311619089
100002.6334606553
99995.19199127314
100009.06911517911
99982.09507136198
100037.32036735189
99917.14646385469
100195.42958666697
99514.41134697452
101272.84235633413
96656.51370252094
109694.06444483565
75754.45372286068
228404.8858883524
690374.952579714
1.02272498360045e6
1.0501435718068236e6
1.0587922223072955e6
1.0711606117128662e6
1.0821428359443138e6
1.0929670735519908e6
1.1032765612919473e6
1.113175768935005e6
1.1226166977592309e6
1.131628296325264e6
1.1401518466361412e6
1.1482447000128846e6
1.1557509978048506e6
1.162862444851851e6
1.169149180185625e6
1.1752450326431566e6
1.179915686765426e6
1.185178924443823e6
1.1873595206924488e6
1.192756652534341e6
1.190190813146688e6
1.1991550154628423e6
100000.00359236359
99999.99334544282
100000.01091212968
99999.9807550319
100000.0325193264
99999.94362569155
100000.09640273979
99999.83355730578
100000.2866388662
99999.50338045611
100000.86387790563
99998.48278685649
100002.70016921767
99995.08941857419
100009.20883294937
99981.95460817873
100037.32147295316
99917.73073292713
100193.15364507581
99521.29063174056
101254.90019859586
96699.77876282623
109587.39561261918
75931.57198274198
225838.02410600608
687916.5236919936
1.0250498930550386e6
1.0548040943294151e6
1.0638219613221153e6
1.076578850373418e6
1.0877230431256997e6
1.0986621213319455e6
1.109059042115854e6
1.119043925033627e6
1.1285757556029262e6
1.1376863978303007e6
1.146316441276939e6
1.1545214022899962e6
1.1621419866733104e6
1.1693668194616297e6
1.1757601709465098e6
1.1819536443778276e6
1.1867018516647406e6
1.1920288757961772e6
1.1942294357410003e6
1.1996543775288395e6
1.1969997624792173e6
1.206063187604083e6
100000.00275238653
99999.99489891001
100000.0083505307
99999.98528999301
100000.02480944744
99999.95706930532
100000.07325578568
99999.8737680493
100000.21699903716
99999.62440786776
100000.6535520032
99998.84899021876
100002.06199720407
99996.20361904058
100007.26062495573
99985.37289878841
100031.30537632725
99928.40957311627
100174.0305603091
99556.17146251306
101188.97984178056
96824.76267692595
109305.13934465224
76392.4647017357
218326.499211662
675987.0364248961
1.0187728927063546e6
1.051783340736216e6
1.0598548190779374e6
1.0724694790706788e6
1.083381698440544e6
1.0941483679723598e6
1.1043765322817247e6
1.1141952023569504e6
1.1235569207691199e6
1.132492476301394e6
1.1409437509189365e6
1.1489672413509826e6
1.156408388355138e6
1.1634562104237291e6
1.1696842024568967e6
1.1757201199407892e6
1.1803360408203886e6
1.185543190368443e6
1.1876604182593944e6
1.1930339520359014e6
1.1903010151754126e6
1.1995207570167435e6
100000.0016126602
99999.99701577506
100000.00487234208
99999.99143963419
100000.01437581785
99999.97521530397
100000.04209302671
99999.92772371465
100000.12389007595
99999.7855401315
100000.37482853643
99999.3318235304
100001.224996183
99997.65757482893
100004.72895169519
99989.80561394697
100023.49015593709
99942.40039748089
100148.49689327643
99604.34462368781
101092.95050698893
97020.27020557539
108824.68841630679
77279.52193057789
207379.25551682882
659506.4045327746
1.0129404512061197e6
1.0520411460020342e6
1.0593577981043484e6
1.0722563491421263e6
1.0831841040549965e6
1.093978428364723e6
1.1042047283847115e6
1.1140149264286153e6
1.123366080081892e6
1.1322942011502576e6
1.1407449481804632e6
1.1487760221970917e6
1.1562360590759013e6
1.1633118205570576e6
1.1695811633072635e6
1.1756637406247025e6
1.1803380326615325e6
1.1856018250959532e6
1.187768414702716e6
1.1932124389237287e6
1.190417331798452e6
1.199889474535486e6
100000.0003212001
99999.99940569104
100000.00095636088
99999.99833818963
100000.00270652829
99999.99543976808
100000.00746920233
99999.98747803365
100000.02107860387
99999.96298345836
100000.06854951786
99999.86169834757
100000.30637506944
99999.256864756
100001.92850468635
99994.76142061589
100014.59141326786
99958.78928048594
100117.29973626163
99666.54174689567
100960.18129190805
97310.56129333409
108064.74109950136
78815.33279281056
193106.4288294528
636491.3050434465
1.0031900187038654e6
1.050634426019532e6
1.056523206225933e6
1.0694376795501087e6
1.0801237928135868e6
1.090734414064883e6
1.1007676534497917e6
1.110386462587915e6
1.1195443209815118e6
1.1282774199696062e6
1.1365330840533099e6
1.1443689840290044e6
1.151638218874739e6
1.1585254417094367e6
1.1646175850003043e6
1.1705262762026335e6
1.175047126360138e6
1.180163562941606e6
1.1822022218081297e6
1.1875712292794557e6
1.184597780981082e6
1.1943313209117644e6
99999.99904207446
100000.00174923193
99999.99712799482
100000.00503775923
99999.99142716863
100000.01488275264
99999.97434191509
100000.04439279472
99999.92353082854
100000.13084228797
99999.77931095108
100000.3621679812
99999.43625722174
100000.78194918833
99999.22459195236
99999.64383644212
100005.54934456316
99976.17454797306
100082.25589640396
99741.17684680801
100788.99309185446
97708.77446665236
106973.7970272853
81190.54220096717
176319.7330397041
607584.1053702115
990488.1594668705
1.0496002349520808e6
1.0539846083401144e6
1.0670652745189855e6
1.077604506796888e6
1.0881090658359376e6
1.0980143393891228e6
1.1074995844585942e6
1.1165199793945693e6
1.125115418721916e6
1.1332379101194222e6
1.1409471656264178e6
1.14810274418282e6
1.1548882898424813e6
1.1609009282402508e6
1.1667439896242004e6
1.1712278119289153e6
1.1763203234174058e6
1.178344797768793e6
1.1837580769983076e6
1.1806567364283928e6
1.1907664465957882e6
99999.99791777956
100000.00377085779
99999.99383931984
100000.0107241506
99999.98193265733
100000.03108830587
99999.94697834918
100000.09100058787
99999.84427317296
100000.26635805586
99999.54683293858
100000.7639305439
99998.73537624616
100002.02290030001
99996.98063970156
100003.82742146781
99997.42532735635
99992.78849466165
100046.17316002821
99824.10747775198
100584.79552927888
98214.4883268145
105537.5884490771
84545.02796127196
157767.519083702
572534.0239869056
973469.6795362963
1.04792216963343e6
1.0506025478877712e6
1.0637222684200297e6
1.074008837381627e6
1.0842987952970709e6
1.093973499175465e6
1.1032215091437008e6
1.1119980738363438e6
1.1203438759468582e6
1.1282136954680055e6
1.1356671495498e6
1.1425686366592976e6
1.1490985657875086e6
1.154863166964937e6
1.1604561382018134e6
1.1647042109871963e6
1.1695658803587803e6
1.1713660884652387e6
1.1766482236723802e6
1.1732398474849397e6
1.1837444320453752e6
99999.99704443412
100000.00528822302
99999.99138836285
100000.01486582863
99999.97513106302
100000.04246089052
99999.92815772198
100000.12240811701
99999.79193528029
100000.35420992922
99999.39844777026
100001.01791981279
99998.29234928645
100002.81861601393
99995.49140378977
100006.76917318921
99991.22530609519
100006.75393418815
100012.57545529427
99908.66250573761
100360.21482311368
98806.95749376788
103807.99478097829
88875.75956035397
138452.83497698786
531604.6905182234
951500.6323859409
1.0457572671161123e6
1.0469248043470874e6
1.060031265992512e6
1.070084715588753e6
1.0801537385442117e6
1.0895922385642943e6
1.0985920404310192e6
1.1071114920710197e6
1.1151929976260918e6
1.1227961977937003e6
1.1299831005561962e6
1.1366266017303113e6
1.1429085069247198e6
1.148450207192356e6
1.1538420369578977e6
1.1579323093933086e6
1.1626729519187051e6
1.164379352979457e6
1.1696831600909005e6
1.166060299469969e6
1.177119883090319e6
99999.99645840077
100000.00624020491
99999.9898718048
100000.0173040983
99999.97128088465
100000.04856953307
99999.91860753506
100000.13735240331
99999.7687664828
100000.39025605659
99999.3420244323
100001.10870272102
99998.13832517668
100003.10462336337
99994.89356218935
100008.17352635706
99987.6034798293
100016.597017912
99984.8694761358
99986.96402165215
100134.27691808806
99442.47978351246
101913.21897680579
93968.10528339235
119543.95877795373
485165.19726850453
923483.256010319
1.0425917793128624e6
1.04281476631035e6
1.055713052720152e6
1.0655035588362536e6
1.0752819768107915e6
1.0844189234015103e6
1.0930980392053279e6
1.1012816181538438e6
1.1090109756926936e6
1.1162477993761175e6
1.1230524659891308e6
1.1293006321775997e6
1.1351685013029918e6
1.1402824241219778e6
1.145221491214201e6
1.1488426323001054e6
1.1531009976581505e6
1.1542916851964386e6
1.1592298277228181e6
1.1549639497313313e6
1.166561925278919e6
99999.99613826131
100000.00668484213
99999.98918711705
100000.01825287096
99999.96998201564
100000.05018212266
99999.91690090626
100000.13846759115
99999.76998520608
100000.38304529613
99999.36256883373
100001.06192579123
99998.23101500672
100002.94669743723
99995.09604832863
100008.13458497636
99986.57532624414
100021.8190097623
99965.2402281327
100051.79589252033
99929.59849026037
100056.79265808577
100051.95367580549
99338.64373442797
102398.95340918018
433973.8742530781
888366.0461530465
1.0378961520469883e6
1.0384560161174434e6
1.0508801059812722e6
1.0604217700112916e6
1.0698663970883319e6
1.0786642636380722e6
1.0869777085887787e6
1.0947759040386532e6
1.102099140895302e6
1.1089130449112032e6
1.1152798390612563e6
1.1210842776961338e6
1.1265069933727137e6
1.131194885138863e6
1.1357339574219142e6
1.139014863091163e6
1.1430047523513224e6
1.1439922588817747e6
1.148922133154969e6
1.1443455176732468e6
1.1567756625669608e6
99999.99602222438
100000.00676468496
99999.98908967564
100000.01819405782
99999.9703529289
100000.04895737358
99999.9199732886
100000.13142582095
99999.7851632903
100000.35166245444
99999.42538689356
100000.94011079213
99998.4591486805
100002.53924710576
99995.7695617901
100007.18222310819
99987.3775662322
100023.2579535356
99953.76706945118
100098.65371634073
99767.25868169761
100576.0072879803
98460.2235891732
104249.75859831081
88478.27251050354
379200.67677863524
845053.0299583289
1.0307550061728827e6
1.0339262842743595e6
1.0454850037429677e6
1.054790648717526e6
1.0638408034861586e6
1.0722430073349567e6
1.0801229989475126e6
1.0874572948211657e6
1.0942811280389063e6
1.1005584854993587e6
1.1063450544698609e6
1.111520648367392e6
1.1162517125297955e6
1.1201738775830844e6
1.1238495985374355e6
1.1261450044241366e6
1.129039541569571e6
1.128734469967024e6
1.1325528302387444e6
1.1263366283250668e6
1.1393638146107218e6
99999.996036241
100000.0066471365
99999.9892933401
100000.01768670995
99999.97137007714
100000.0468241196
99999.92423757451
100000.12292903918
99999.80181523268
100000.31934786186
99999.48732960009
100000.823058504
99998.6760719131
100002.14905279038
99996.43713113388
100006.14527345191
99988.64647716847
100022.9327289145
99948.24969182408
100127.1551524994
99661.09287227572
100934.13861613444
97358.03129089037
107843.10757821314
79147.26136906186
322489.40871576587
792613.7956717742
1.0199129461266857e6
1.0293400376485931e6
1.0395583443823948e6
1.0486543568182706e6
1.0572573591481126e6
1.06521392823769e6
1.0726006603584283e6
1.0794030872086117e6
1.0856512463807296e6
1.0913092424360295e6
1.0964308869075729e6
1.1009017681840344e6
1.1048926529608937e6
1.108064290479565e6
1.1109983960910323e6
1.1126241288027084e6
1.1149553582893917e6
1.1142575253202945e6
1.117942634065567e6
1.1113799346775014e6
1.1255162837592568e6
99999.99612361935
100000.00645853604
99999.98958331258
100000.01714767715
99999.97226978115
100000.04522465369
99999.92699326327
100000.11807261877
99999.81032134323
100000.30430775508
99999.5139163447
100000.77603649248
99998.758565153
100002.00734230429
99996.66960814167
100005.80440181305
99989.01129153102
100023.090314948
99945.51369146809
100139.90903262714
99615.9632979141
101087.8370976502
96900.96799252628
109363.66215889963
75347.29888638496
265920.67967442586
730487.5489392679
1.0037109264801068e6
1.0247347853935664e6
1.0331277722276992e6
1.0420268932121429e6
1.0501293551465953e6
1.057583107983401e6
1.0644072275612983e6
1.0705934329186957e6
1.0761609429696396e6
1.0810642230150113e6
1.085339911323756e6
1.088851405797798e6
1.0917324017465133e6
1.0935898765979111e6
1.0949318429659198e6
1.0945529689380196e6
1.0944242288912695e6
1.0904514424118872e6
1.0907696505209848e6
1.0792065052411566e6
1.0932475388997432e6
99999.99626496629
100000.00623728095
99999.98989771475
100000.01668917459
99999.97285494077
100000.04452100306
99999.92756920341
100000.11813621715
99999.80820110165
100000.31144410858
99999.49533453913
100000.81888794048
99998.66627941954
100002.19619206779
99996.30055404842
100006.49289496883
99987.81443623248
100024.97605660526
99943.2920188927
100140.44369029897
99627.16079922087
101034.96568679788
97104.6856367051
108659.34520060691
77138.73576987043
211856.24105145945
658716.1755917956
980136.7200518934
1.0200089039313258e6
1.0262734157510975e6
1.0349456319264799e6
1.042501340633248e6
1.0493961906985408e6
1.0555936359922676e6
1.0610886160466177e6
1.065888791071913e6
1.0699396617531287e6
1.0732650468125162e6
1.0757211229926774e6
1.0774319345667462e6
1.0780229278160504e6
1.0780161965386735e6
1.0763274034469507e6
1.0749294083760453e6
1.0701613911024616e6
1.0695867203924365e6
1.0580194783462805e6
1.0713034667996403e6
99999.99647987765
100000.00592741602
99999.99033998349
100000.01609049091
99999.97355763518
100000.04385726119
99999.92762647147
100000.11992473449
99999.8015393864
100000.32929557467
99999.45294825672
100000.91231402943
99998.47036213812
100002.58955072946
99995.54606272529
100007.85858153758
99985.57323397708
100027.98349126033
99941.70499627301
100131.07982539925
99682.7164143794
100817.93953409181
97827.5392720114
106214.69524874906
83565.86429876031
162956.07740739657
578169.0642134729
946853.8787311652
1.0147290167870601e6
1.019113672582527e6
1.0274426709405435e6
1.0344142543652185e6
1.0406923137209177e6
1.0461979916848761e6
1.050920800303401e6
1.054850403610907e6
1.0579106584155767e6
1.0600916755527724e6
1.0612007570973143e6
1.061282980233213e6
1.0598325230253488e6
1.0571648481831064e6
1.0518008115869062e6
1.045285076505934e6
1.0326249208637504e6
1.0220139033073607e6
992669.5136079484
999156.2493273057
99999.9968088789
100000.00541876798
99999.99111018374
100000.01493121158
99999.9751981936
100000.04160609264
99999.93034708589
100000.11723922714
99999.8023483767
100000.33471907736
99999.43110541062
100000.97194714926
99998.32989032887
100002.89127036529
99994.94702463929
100008.94271551228
99983.89876474142
100029.66551212598
99943.59011894169
100111.60643385367
99767.95872445204
100510.13264475636
98818.58649372673
102953.69861106262
92638.44509862873
122285.39397262178
490828.49240854627
901286.5063377155
1.0078570417949451e6
1.0117901038260878e6
1.0195445000616714e6
1.0259131248511636e6
1.031523790620952e6
1.0362837488646931e6
1.0401690259537818e6
1.0431498301647047e6
1.0451273951319251e6
1.0460592694451999e6
1.0457176461330408e6
1.0440932193643294e6
1.040654195148322e6
1.0356387105596333e6
1.0277138116802942e6
1.0182295808266968e6
1.003480790691455e6
988629.6730343032
960505.3451725377
927467.7789775291
99999.99728305422
100000.00461829863
99999.99238067733
100000.01283867148
99999.97852180855
100000.03625716188
99999.93874904465
100000.10407753446
99999.82250577891
100000.30433809977
99999.47559690182
100000.90865308615
99998.41704678535
100002.77240880275
99995.12156454512
100008.61412232502
99984.76975472494
100026.8490188418
99953.10664975582
100079.97260531505
99869.63988169003
100189.13227772914
99796.25246142187
99918.41928616658
101528.44832668985
93125.25813423027
400148.1957719694
840938.9231094659
997440.8866224819
1.004411883230003e6
1.0112661254841812e6
1.0170379553834775e6
1.021943413896218e6
1.0259151299990293e6
1.0289076634833729e6
1.0308684589106743e6
1.0316673844633298e6
1.031214213615869e6
1.0292125369847569e6
1.0255340086134712e6
1.0194634903009933e6
1.0108476828588864e6
997697.098331203
979764.2412037422
950331.1354209527
907523.037463669
822133.8316583569
670878.5130759432
99999.99789548517
100000.00351983777
99999.9941729059
100000.0097374306
99999.98372111608
100000.02735120992
99999.95387180423
100000.07816768448
99999.86687724161
100000.22792029446
99999.60766501789
100000.6788981792
99998.81991835395
100002.05750690888
99996.41195848791
100006.2261954284
99989.34646365907
100017.65403124105
99972.67103824756
100035.55523909703
99976.87412871383
99914.74708143368
100529.04470387415
97901.17536838498
107394.29983179837
77814.33185567184
311064.3803738157
764243.135779966
980529.1124135235
996999.5560012329
1.0026408007702142e6
1.0078381546298246e6
1.0120177738216356e6
1.0151746342112882e6
1.0172400513034246e6
1.0181388547728154e6
1.0177099859662066e6
1.015813335174162e6
1.0120922797237646e6
1.0063097483319647e6
997613.4839318113
985585.792079041
967945.1806331741
943762.7887358152
906095.6916482014
851556.6761472889
756549.6528341704
601023.1678355793
99999.99858906957
100000.00223614562
99999.99629903614
100000.00597124494
99999.99019377034
100000.01597074087
99999.97378642259
100000.04296925383
99999.92926420485
100000.11658716318
99999.8073613768
100000.31846335306
99999.47432131994
100000.86189185751
99998.6100803304
100002.15893189814
99996.92075838945
100003.45707791531
99999.45344927361
99984.7348022025
100073.95583649505
99729.15109884691
100887.78670561168
97234.9504350405
108680.02034145308
75972.0587639028
229177.47707858164
671567.241582901
953460.064325609
989409.0792627858
993778.0052499386
998392.4812801309
1.0018337960555784e6
1.0041601289399688e6
1.0052818686153822e6
1.0051035921362714e6
1.0034326602120653e6
1.0000896604871679e6
994661.7371732076
986830.8745262265
975649.3506919974
960552.034420681
939151.6227418081
910387.3017182286
867704.3269959259
808856.127026776
714899.1437218611
582316.7629988728
99999.99926834009
100000.00097290949
99999.99840576686
100000.00221905555
99999.9966928824
100000.00446422852
99999.99409118494
100000.00678762807
99999.99396286467
100000.00012078504
100000.01807879141
99999.93510978343
100000.17497121988
99999.5764056212
100000.97366825609
99997.81476024755
100004.86869123303
99989.08668554664
100024.82338910086
99942.11924854113
100138.56230202697
99656.89613749036
100874.00766555173
97723.80557419601
106257.21610811529
83862.14211621888
159937.65319020054
565496.0384718742
912056.2322899483
980974.9294152193
984861.463049108
988799.2708942151
991490.625541951
992979.540463104
993159.6772765473
991916.2620396537
989032.1421127105
984296.9788714997
977261.6392872725
967562.9007965864
954211.3593500793
936616.8776528334
912425.28424039
880820.8039243424
835794.9332784131
777042.5145771316
688770.8821756012
578289.2068099149
99999.99983107486
99999.9999535815
100000.00010585456
99999.99923172998
100000.00182583822
99999.99547845015
100000.00977667833
99999.97916665926
100000.04274416133
99999.91345291404
100000.17270611947
99999.65799641899
100000.67311605446
99998.67962954544
100002.58527109901
99994.93891926539
100009.91747714873
99980.52136531012
100038.36379344197
99924.13496256436
100150.42609733947
99700.55758228719
100595.37320273941
98821.37505617212
102339.05884370238
95681.25277595974
109007.7085093225
451172.3198923318
851650.4671620865
969678.6832337944
976000.8759886306
979121.1504693489
981067.8763516884
981730.5598353636
980993.3598848786
978723.4050443686
974689.6464732774
968661.6407388321
960174.2709475297
948853.0269221537
933715.3346760366
914226.1673966984
888168.0412490687
855088.2231171927
809677.0026799251
753095.4151538515
672577.0519152603
579139.4613724567
100000.00020506294
99999.99933120074
100000.00113373276
99999.99751860948
100000.00465427536
99999.99078321492
100000.01751798151
99999.96639732954
100000.06367222535
99999.87931562231
100000.22782350164
99999.57022468177
100000.80960461588
99998.47582228226
100002.86630871061
99994.61897039512
100010.06659176975
99981.29074258237
100034.33919215077
99938.38306323215
100105.75519414154
99833.86736834489
100205.67268823227
99944.17138341055
99054.39635261783
105138.92444645044
81094.92090614958
337044.57939256134
768496.8781977493
951530.5466094605
967057.0280505586
969371.7764857241
970618.7283426959
970495.4248667256