# vtk DataFile Version 2.0
JuliaCFD
ASCII
DATASET UNSTRUCTURED_GRID

POINTS 32898 float
0.0 0.0 -0.05
0.0125 0.0 -0.05
0.025 0.0 -0.05
0.0375 0.0 -0.05
0.05 0.0 -0.05
0.0625 0.0 -0.05
0.075 0.0 -0.05
0.0875 0.0 -0.05
0.1 0.0 -0.05
0.1125 0.0 -0.05
0.125 0.0 -0.05
0.1375 0.0 -0.05
0.15 0.0 -0.05
0.1625 0.0 -0.05
0.175 0.0 -0.05
0.1875 0.0 -0.05
0.2 0.0 -0.05
0.2125 0.0 -0.05
0.225 0.0 -0.05
0.2375 0.0 -0.05
0.25 0.0 -0.05
0.2625 0.0 -0.05
0.275 0.0 -0.05
0.2875 0.0 -0.05
0.3 0.0 -0.05
0.3125 0.0 -0.05
0.325 0.0 -0.05
0.3375 0.0 -0.05
0.35 0.0 -0.05
0.3625 0.0 -0.05
0.375 0.0 -0.05
0.3875 0.0 -0.05
0.4 0.0 -0.05
0.4125 0.0 -0.05
0.425 0.0 -0.05
0.4375 0.0 -0.05
0.45 0.0 -0.05
0.4625 0.0 -0.05
0.475 0.0 -0.05
0.4875 0.0 -0.05
0.5 0.0 -0.05
0.5125 0.0 -0.05
0.525 0.0 -0.05
0.5375 0.0 -0.05
0.55 0.0 -0.05
0.5625 0.0 -0.05
0.575 0.0 -0.05
0.5875 0.0 -0.05
0.6 0.0 -0.05
0.0 0.0125 -0.05
0.0125 0.0125 -0.05
0.025 0.0125 -0.05
0.0375 0.0125 -0.05
0.05 0.0125 -0.05
0.0625 0.0125 -0.05
0.075 0.0125 -0.05
0.0875 0.0125 -0.05
0.1 0.0125 -0.05
0.1125 0.0125 -0.05
0.125 0.0125 -0.05
0.1375 0.0125 -0.05
0.15 0.0125 -0.05
0.1625 0.0125 -0.05
0.175 0.0125 -0.05
0.1875 0.0125 -0.05
0.2 0.0125 -0.05
0.2125 0.0125 -0.05
0.225 0.0125 -0.05
0.2375 0.0125 -0.05
0.25 0.0125 -0.05
0.2625 0.0125 -0.05
0.275 0.0125 -0.05
0.2875 0.0125 -0.05
0.3 0.0125 -0.05
0.3125 0.0125 -0.05
0.325 0.0125 -0.05
0.3375 0.0125 -0.05
0.35 0.0125 -0.05
0.3625 0.0125 -0.05
0.375 0.0125 -0.05
0.3875 0.0125 -0.05
0.4 0.0125 -0.05
0.4125 0.0125 -0.05
0.425 0.0125 -0.05
0.4375 0.0125 -0.05
0.45 0.0125 -0.05
0.4625 0.0125 -0.05
0.475 0.0125 -0.05
0.4875 0.0125 -0.05
0.5 0.0125 -0.05
0.5125 0.0125 -0.05
0.525 0.0125 -0.05
0.5375 0.0125 -0.05
0.55 0.0125 -0.05
0.5625 0.0125 -0.05
0.575 0.0125 -0.05
0.5875 0.0125 -0.05
0.6 0.0125 -0.05
0.0 0.025 -0.05
0.0125 0.025 -0.05
0.025 0.025 -0.05
0.0375 0.025 -0.05
0.05 0.025 -0.05
0.0625 0.025 -0.05
0.075 0.025 -0.05
0.0875 0.025 -0.05
0.1 0.025 -0.05
0.1125 0.025 -0.05
0.125 0.025 -0.05
0.1375 0.025 -0.05
0.15 0.025 -0.05
0.1625 0.025 -0.05
0.175 0.025 -0.05
0.1875 0.025 -0.05
0.2 0.025 -0.05
0.2125 0.025 -0.05
0.225 0.025 -0.05
0.2375 0.025 -0.05
0.25 0.025 -0.05
0.2625 0.025 -0.05
0.275 0.025 -0.05
0.2875 0.025 -0.05
0.3 0.025 -0.05
0.3125 0.025 -0.05
0.325 0.025 -0.05
0.3375 0.025 -0.05
0.35 0.025 -0.05
0.3625 0.025 -0.05
0.375 0.025 -0.05
0.3875 0.025 -0.05
0.4 0.025 -0.05
0.4125 0.025 -0.05
0.425 0.025 -0.05
0.4375 0.025 -0.05
0.45 0.025 -0.05
0.4625 0.025 -0.05
0.475 0.025 -0.05
0.4875 0.025 -0.05
0.5 0.025 -0.05
0.5125 0.025 -0.05
0.525 0.025 -0.05
0.5375 0.025 -0.05
0.55 0.025 -0.05
0.5625 0.025 -0.05
0.575 0.025 -0.05
0.5875 0.025 -0.05
0.6 0.025 -0.05
0.0 0.0375 -0.05
0.0125 0.0375 -0.05
0.025 0.0375 -0.05
0.0375 0.0375 -0.05
0.05 0.0375 -0.05
0.0625 0.0375 -0.05
0.075 0.0375 -0.05
0.0875 0.0375 -0.05
0.1 0.0375 -0.05
0.1125 0.0375 -0.05
0.125 0.0375 -0.05
0.1375 0.0375 -0.05
0.15 0.0375 -0.05
0.1625 0.0375 -0.05
0.175 0.0375 -0.05
0.1875 0.0375 -0.05
0.2 0.0375 -0.05
0.2125 0.0375 -0.05
0.225 0.0375 -0.05
0.2375 0.0375 -0.05
0.25 0.0375 -0.05
0.2625 0.0375 -0.05
0.275 0.0375 -0.05
0.2875 0.0375 -0.05
0.3 0.0375 -0.05
0.3125 0.0375 -0.05
0.325 0.0375 -0.05
0.3375 0.0375 -0.05
0.35 0.0375 -0.05
0.3625 0.0375 -0.05
0.375 0.0375 -0.05
0.3875 0.0375 -0.05
0.4 0.0375 -0.05
0.4125 0.0375 -0.05
0.425 0.0375 -0.05
0.4375 0.0375 -0.05
0.45 0.0375 -0.05
0.4625 0.0375 -0.05
0.475 0.0375 -0.05
0.4875 0.0375 -0.05
0.5 0.0375 -0.05
0.5125 0.0375 -0.05
0.525 0.0375 -0.05
0.5375 0.0375 -0.05
0.55 0.0375 -0.05
0.5625 0.0375 -0.05
0.575 0.0375 -0.05
0.5875 0.0375 -0.05
0.6 0.0375 -0.05
0.0 0.05 -0.05
0.0125 0.05 -0.05
0.025 0.05 -0.05
0.0375 0.05 -0.05
0.05 0.05 -0.05
0.0625 0.05 -0.05
0.075 0.05 -0.05
0.0875 0.05 -0.05
0.1 0.05 -0.05
0.1125 0.05 -0.05
0.125 0.05 -0.05
0.1375 0.05 -0.05
0.15 0.05 -0.05
0.1625 0.05 -0.05
0.175 0.05 -0.05
0.1875 0.05 -0.05
0.2 0.05 -0.05
0.2125 0.05 -0.05
0.225 0.05 -0.05
0.2375 0.05 -0.05
0.25 0.05 -0.05
0.2625 0.05 -0.05
0.275 0.05 -0.05
0.2875 0.05 -0.05
0.3 0.05 -0.05
0.3125 0.05 -0.05
0.325 0.05 -0.05
0.3375 0.05 -0.05
0.35 0.05 -0.05
0.3625 0.05 -0.05
0.375 0.05 -0.05
0.3875 0.05 -0.05
0.4 0.05 -0.05
0.4125 0.05 -0.05
0.425 0.05 -0.05
0.4375 0.05 -0.05
0.45 0.05 -0.05
0.4625 0.05 -0.05
0.475 0.05 -0.05
0.4875 0.05 -0.05
0.5 0.05 -0.05
0.5125 0.05 -0.05
0.525 0.05 -0.05
0.5375 0.05 -0.05
0.55 0.05 -0.05
0.5625 0.05 -0.05
0.575 0.05 -0.05
0.5875 0.05 -0.05
0.6 0.05 -0.05
0.0 0.0625 -0.05
0.0125 0.0625 -0.05
0.025 0.0625 -0.05
0.0375 0.0625 -0.05
0.05 0.0625 -0.05
0.0625 0.0625 -0.05
0.075 0.0625 -0.05
0.0875 0.0625 -0.05
0.1 0.0625 -0.05
0.1125 0.0625 -0.05
0.125 0.0625 -0.05
0.1375 0.0625 -0.05
0.15 0.0625 -0.05
0.1625 0.0625 -0.05
0.175 0.0625 -0.05
0.1875 0.0625 -0.05
0.2 0.0625 -0.05
0.2125 0.0625 -0.05
0.225 0.0625 -0.05
0.2375 0.0625 -0.05
0.25 0.0625 -0.05
0.2625 0.0625 -0.05
0.275 0.0625 -0.05
0.2875 0.0625 -0.05
0.3 0.0625 -0.05
0.3125 0.0625 -0.05
0.325 0.0625 -0.05
0.3375 0.0625 -0.05
0.35 0.0625 -0.05
0.3625 0.0625 -0.05
0.375 0.0625 -0.05
0.3875 0.0625 -0.05
0.4 0.0625 -0.05
0.4125 0.0625 -0.05
0.425 0.0625 -0.05
0.4375 0.0625 -0.05
0.45 0.0625 -0.05
0.4625 0.0625 -0.05
0.475 0.0625 -0.05
0.4875 0.0625 -0.05
0.5 0.0625 -0.05
0.5125 0.0625 -0.05
0.525 0.0625 -0.05
0.5375 0.0625 -0.05
0.55 0.0625 -0.05
0.5625 0.0625 -0.05
0.575 0.0625 -0.05
0.5875 0.0625 -0.05
0.6 0.0625 -0.05
0.0 0.075 -0.05
0.0125 0.075 -0.05
0.025 0.075 -0.05
0.0375 0.075 -0.05
0.05 0.075 -0.05
0.0625 0.075 -0.05
0.075 0.075 -0.05
0.0875 0.075 -0.05
0.1 0.075 -0.05
0.1125 0.075 -0.05
0.125 0.075 -0.05
0.1375 0.075 -0.05
0.15 0.075 -0.05
0.1625 0.075 -0.05
0.175 0.075 -0.05
0.1875 0.075 -0.05
0.2 0.075 -0.05
0.2125 0.075 -0.05
0.225 0.075 -0.05
0.2375 0.075 -0.05
0.25 0.075 -0.05
0.2625 0.075 -0.05
0.275 0.075 -0.05
0.2875 0.075 -0.05
0.3 0.075 -0.05
0.3125 0.075 -0.05
0.325 0.075 -0.05
0.3375 0.075 -0.05
0.35 0.075 -0.05
0.3625 0.075 -0.05
0.375 0.075 -0.05
0.3875 0.075 -0.05
0.4 0.075 -0.05
0.4125 0.075 -0.05
0.425 0.075 -0.05
0.4375 0.075 -0.05
0.45 0.075 -0.05
0.4625 0.075 -0.05
0.475 0.075 -0.05
0.4875 0.075 -0.05
0.5 0.075 -0.05
0.5125 0.075 -0.05
0.525 0.075 -0.05
0.5375 0.075 -0.05
0.55 0.075 -0.05
0.5625 0.075 -0.05
0.575 0.075 -0.05
0.5875 0.075 -0.05
0.6 0.075 -0.05
0.0 0.0875 -0.05
0.0125 0.0875 -0.05
0.025 0.0875 -0.05
0.0375 0.0875 -0.05
0.05 0.0875 -0.05
0.0625 0.0875 -0.05
0.075 0.0875 -0.05
0.0875 0.0875 -0.05
0.1 0.0875 -0.05
0.1125 0.0875 -0.05
0.125 0.0875 -0.05
0.1375 0.0875 -0.05
0.15 0.0875 -0.05
0.1625 0.0875 -0.05
0.175 0.0875 -0.05
0.1875 0.0875 -0.05
0.2 0.0875 -0.05
0.2125 0.0875 -0.05
0.225 0.0875 -0.05
0.2375 0.0875 -0.05
0.25 0.0875 -0.05
0.2625 0.0875 -0.05
0.275 0.0875 -0.05
0.2875 0.0875 -0.05
0.3 0.0875 -0.05
0.3125 0.0875 -0.05
0.325 0.0875 -0.05
0.3375 0.0875 -0.05
0.35 0.0875 -0.05
0.3625 0.0875 -0.05
0.375 0.0875 -0.05
0.3875 0.0875 -0.05
0.4 0.0875 -0.05
0.4125 0.0875 -0.05
0.425 0.0875 -0.05
0.4375 0.0875 -0.05
0.45 0.0875 -0.05
0.4625 0.0875 -0.05
0.475 0.0875 -0.05
0.4875 0.0875 -0.05
0.5 0.0875 -0.05
0.5125 0.0875 -0.05
0.525 0.0875 -0.05
0.5375 0.0875 -0.05
0.55 0.0875 -0.05
0.5625 0.0875 -0.05
0.575 0.0875 -0.05
0.5875 0.0875 -0.05
0.6 0.0875 -0.05
0.0 0.1 -0.05
0.0125 0.1 -0.05
0.025 0.1 -0.05
0.0375 0.1 -0.05
0.05 0.1 -0.05
0.0625 0.1 -0.05
0.075 0.1 -0.05
0.0875 0.1 -0.05
0.1 0.1 -0.05
0.1125 0.1 -0.05
0.125 0.1 -0.05
0.1375 0.1 -0.05
0.15 0.1 -0.05
0.1625 0.1 -0.05
0.175 0.1 -0.05
0.1875 0.1 -0.05
0.2 0.1 -0.05
0.2125 0.1 -0.05
0.225 0.1 -0.05
0.2375 0.1 -0.05
0.25 0.1 -0.05
0.2625 0.1 -0.05
0.275 0.1 -0.05
0.2875 0.1 -0.05
0.3 0.1 -0.05
0.3125 0.1 -0.05
0.325 0.1 -0.05
0.3375 0.1 -0.05
0.35 0.1 -0.05
0.3625 0.1 -0.05
0.375 0.1 -0.05
0.3875 0.1 -0.05
0.4 0.1 -0.05
0.4125 0.1 -0.05
0.425 0.1 -0.05
0.4375 0.1 -0.05
0.45 0.1 -0.05
0.4625 0.1 -0.05
0.475 0.1 -0.05
0.4875 0.1 -0.05
0.5 0.1 -0.05
0.5125 0.1 -0.05
0.525 0.1 -0.05
0.5375 0.1 -0.05
0.55 0.1 -0.05
0.5625 0.1 -0.05
0.575 0.1 -0.05
0.5875 0.1 -0.05
0.6 0.1 -0.05
0.0 0.1125 -0.05
0.0125 0.1125 -0.05
0.025 0.1125 -0.05
0.0375 0.1125 -0.05
0.05 0.1125 -0.05
0.0625 0.1125 -0.05
0.075 0.1125 -0.05
0.0875 0.1125 -0.05
0.1 0.1125 -0.05
0.1125 0.1125 -0.05
0.125 0.1125 -0.05
0.1375 0.1125 -0.05
0.15 0.1125 -0.05
0.1625 0.1125 -0.05
0.175 0.1125 -0.05
0.1875 0.1125 -0.05
0.2 0.1125 -0.05
0.2125 0.1125 -0.05
0.225 0.1125 -0.05
0.2375 0.1125 -0.05
0.25 0.1125 -0.05
0.2625 0.1125 -0.05
0.275 0.1125 -0.05
0.2875 0.1125 -0.05
0.3 0.1125 -0.05
0.3125 0.1125 -0.05
0.325 0.1125 -0.05
0.3375 0.1125 -0.05
0.35 0.1125 -0.05
0.3625 0.1125 -0.05
0.375 0.1125 -0.05
0.3875 0.1125 -0.05
0.4 0.1125 -0.05
0.4125 0.1125 -0.05
0.425 0.1125 -0.05
0.4375 0.1125 -0.05
0.45 0.1125 -0.05
0.4625 0.1125 -0.05
0.475 0.1125 -0.05
0.4875 0.1125 -0.05
0.5 0.1125 -0.05
0.5125 0.1125 -0.05
0.525 0.1125 -0.05
0.5375 0.1125 -0.05
0.55 0.1125 -0.05
0.5625 0.1125 -0.05
0.575 0.1125 -0.05
0.5875 0.1125 -0.05
0.6 0.1125 -0.05
0.0 0.125 -0.05
0.0125 0.125 -0.05
0.025 0.125 -0.05
0.0375 0.125 -0.05
0.05 0.125 -0.05
0.0625 0.125 -0.05
0.075 0.125 -0.05
0.0875 0.125 -0.05
0.1 0.125 -0.05
0.1125 0.125 -0.05
0.125 0.125 -0.05
0.1375 0.125 -0.05
0.15 0.125 -0.05
0.1625 0.125 -0.05
0.175 0.125 -0.05
0.1875 0.125 -0.05
0.2 0.125 -0.05
0.2125 0.125 -0.05
0.225 0.125 -0.05
0.2375 0.125 -0.05
0.25 0.125 -0.05
0.2625 0.125 -0.05
0.275 0.125 -0.05
0.2875 0.125 -0.05
0.3 0.125 -0.05
0.3125 0.125 -0.05
0.325 0.125 -0.05
0.3375 0.125 -0.05
0.35 0.125 -0.05
0.3625 0.125 -0.05
0.375 0.125 -0.05
0.3875 0.125 -0.05
0.4 0.125 -0.05
0.4125 0.125 -0.05
0.425 0.125 -0.05
0.4375 0.125 -0.05
0.45 0.125 -0.05
0.4625 0.125 -0.05
0.475 0.125 -0.05
0.4875 0.125 -0.05
0.5 0.125 -0.05
0.5125 0.125 -0.05
0.525 0.125 -0.05
0.5375 0.125 -0.05
0.55 0.125 -0.05
0.5625 0.125 -0.05
0.575 0.125 -0.05
0.5875 0.125 -0.05
0.6 0.125 -0.05
0.0 0.1375 -0.05
0.0125 0.1375 -0.05
0.025 0.1375 -0.05
0.0375 0.1375 -0.05
0.05 0.1375 -0.05
0.0625 0.1375 -0.05
0.075 0.1375 -0.05
0.0875 0.1375 -0.05
[...]
CELL_DATA 16128
SCALARS P float 1
LOOKUP_TABLE default
100000.01159044937
99999.9809273069
100000.03087751086
99999.94944757824
100000.08198572107
99999.86632817812
100000.21683905867
99999.64760923744
100000.57096594083
99999.07505504803
100001.49460045809
99997.58940200378
100003.87365312899
99993.80605241317
100009.81970697606
99984.6553452894
100023.33926161414
99966.36665814272
100042.75457570692
99964.29689841245
99961.11665449572
100347.76831444814
98617.86062728039
104798.19002833101
85473.19245671449
155439.08543706042
574607.355008643
994484.7406488068
1.0722728771024367e6
1.0709964624787602e6
1.0864337370466639e6
1.0968836254222426e6
1.1081334447935298e6
1.1185050998465412e6
1.128485897168052e6
1.1379322507454068e6
1.146848015539861e6
1.1552755899780553e6
1.1630707104788881e6
1.170430224454087e6
1.1769255816244646e6
1.1832036720622692e6
1.1880203401708808e6
1.193422502751647e6
1.1956973155257832e6
1.2012053642980051e6
1.198673441478461e6
1.2077057949269104e6
100000.01148942193
99999.98114392113
100000.03052675392
99999.95013286105
100000.08078441623
99999.86858946121
100000.21274428896
99999.65518712222
100000.5571626356
99999.10022252529
100001.44927949327
99997.67015812661
100003.73233436269
99994.04766340813
100009.4204703994
99985.28193183518
100022.43748241849
99967.45077040943
100042.0532866281
99962.68632383183
99970.46243281165
100316.19345930562
98705.53452663466
104559.36388351698
85994.39444482139
153438.78114962543
571300.7984277392
995566.4168707539
1.077019019804219e6
1.0761511731279776e6
1.0920946767604707e6
1.10274503726941e6
1.1141290258826134e6
1.1245943066042275e6
1.1346587107792904e6
1.144189553021021e6
1.1531944078796066e6
1.1617163170842878e6
1.1696087572490266e6
1.177066148262815e6
1.1836541190546975e6
1.1900171636514605e6
1.1948995782370756e6
1.2003545683534397e6
1.202638950151407e6
1.2081664389892232e6
1.2055380488454378e6
1.2146685429758085e6
100000.01109026617
99999.98178648297
100000.0295087128
99999.95176207133
100000.07824239196
99999.87256920918
100000.2066718912
99999.66435364725
100000.54378003432
99999.11907978896
100001.42445883818
99997.69916903095
100003.70751875477
99994.04415697971
100009.51305382844
99984.95627168876
100023.32725391263
99965.2295884968
100047.38401508424
99949.93025485471
100001.10239893028
100239.9911101689
98894.77172853431
104039.37194888805
87252.15656043787
147790.31295111892
558578.6337597588
986829.1925157702
1.0738251127682738e6
1.072005921571204e6
1.0877235962235203e6
1.0981358722642167e6
1.1093224851473586e6
1.1196127247233165e6
1.1295057874777925e6
1.1388669656747072e6
1.147700698190705e6
1.156050130207299e6
1.1637721327680175e6
1.1710610602971485e6
1.177491568513487e6
1.1837043459857856e6
1.1884615162152692e6
1.193803560235952e6
1.1960114657510163e6
1.2014942336975087e6
1.1987922105354846e6
1.2080833044260587e6
100000.01052090073
99999.98270793361
100000.02804905287
99999.95410823931
100000.07456389879
99999.87837442977
100000.19770390604
99999.67814026207
100000.52306275055
99999.14962367761
100001.38102096632
99997.7579383392
100003.6351054812
99994.11659920595
100009.48604840717
99984.81183655877
100023.96785352571
99963.25775924875
100052.80650623424
99935.44580860544
100039.25811476188
100137.24359446023
99167.33093616979
103259.26601882496
89225.37652560153
139636.8680329651
540558.0345983752
977043.7025105298
1.0739247692637648e6
1.0714803947064385e6
1.0874463833713292e6
1.0979305184786615e6
1.1091489430659234e6
1.1194533455995796e6
1.129344821626104e6
1.1387030190370495e6
1.147536331239624e6
1.1558918153718857e6
1.1636301087510204e6
1.1709440499255254e6
1.17741296138013e6
1.183669594449068e6
1.188482665692512e6
1.193879337199878e6
1.1961349530939846e6
1.201687590075314e6
1.1989220314062762e6
1.2084668399223492e6
100000.00979708727
99999.98389246712
100000.02616408221
99999.95716762861
100000.06971043473
99999.88614719972
100000.1854510742
99999.69746134337
100000.49299562346
99999.19606596234
100001.31044966159
99997.86318333336
100003.48305841356
99994.32501529479
100009.22937681379
99985.04633383214
100024.01178768242
99962.13360785673
100057.31211876191
99920.9073495059
100082.19238172997
100012.56876436154
99516.38304548067
102235.48953288831
91936.50259451568
129319.09079368201
515841.80132921494
961908.3079335102
1.0720919704550344e6
1.0685774270457278e6
1.0843868963864462e6
1.0946764101906635e6
1.105678956345804e6
1.1157884725199426e6
1.1254793148876936e6
1.1346405078241816e6
1.1432772035099685e6
1.1514374826624803e6
1.1589853590808492e6
1.166111469674925e6
1.1724040301130223e6
1.178487677357144e6
1.1831484787651277e6
1.1883993046251258e6
1.1905289195478668e6
1.1960092277597582e6
1.1930670905903038e6
1.2028756366864594e6
100000.00894552264
99999.98530301018
100000.02390644664
99999.96086957643
100000.06376421517
99999.89580769443
100000.16993208845
99999.72247870268
100000.45295062357
99999.2600735176
100001.20885966606
99998.02331121394
100003.23394741435
99994.70455553054
100008.67330090469
99985.79738015415
100023.18695125048
99962.40329624193
100059.78462445449
99908.67303920578
100124.8273662832
99877.43717199974
99917.2283046096
101032.63665036646
95291.21743213742
117685.08878453153
485242.95727105474
942266.1803346223
1.0702598298876197e6
1.0660625097175501e6
1.081771740495947e6
1.0920113376644324e6
1.1028836313939085e6
1.1128786974852157e6
1.1224365770026224e6
1.1314655606131032e6
1.1399708249982626e6
1.1480052877521703e6
1.1554391748200208e6
1.162462758980338e6
1.168674741054551e6
1.1746916802261383e6
1.179314755679928e6
1.184541566413928e6
1.1866573797254516e6
1.1921835575243917e6
1.1891138510331232e6
1.1993006350128017e6
100000.00800410986
99999.98687652785
100000.02137469077
99999.96505267257
100000.05697817825
99999.90695068477
100000.15177914694
99999.75220357804
100000.40444101811
99999.33936722466
100001.07956008975
99998.23379353792
100002.89322411662
99995.25075403946
100007.8147891832
99987.09472191511
100021.385343431
99964.39059672902
100059.33897705404
99901.09163303285
100161.17133631997
99747.27260879807
100332.34460083609
99751.47411487515
99090.61548459476
105607.44569285524
448927.1866619558
916747.3807062466
1.0671447884276889e6
1.0628012971477676e6
1.0780886688675107e6
1.0881987994096875e6
1.0988089038862616e6
1.1085773072752543e6
1.1178866298937255e6
1.1266663035666468e6
1.1349171549835247e6
1.14269454698913e6
1.1498726180556503e6
1.1566386910456747e6
1.162600591605966e6
1.1683653035494664e6
1.1727507109080607e6
1.1777453677150772e6
1.1796361161100692e6
1.1850323591233667e6
1.1816555768975394e6
1.1922400218100955e6
100000.00701897783
99999.98852890532
100000.01870581196
99999.96947706764
100000.04975740187
99999.91887480015
100000.13219538401
99999.78455600665
100000.35105159748
99999.42776916573
100000.93314098274
99998.47662184756
100002.4910664788
99995.91425563981
100006.73127265825
99988.8262025266
100018.74333854498
99968.01425556598
100055.71666515394
99899.68696634656
100185.8435978319
99638.94526908534
100713.4197514682
98531.1816678029
102968.46751702446
94172.1637821409
407591.35888758773
884721.7986510539
1.0625981412039956e6
1.0594150359319698e6
1.073994698847281e6
1.0840442013485709e6
1.0943782404942368e6
1.1039185538906334e6
1.1129697361003698e6
1.1214888296836892e6
1.1294732850299003e6
1.1369839805504675e6
1.1439028478668036e6
1.1504191788085073e6
1.1561562600865483e6
1.1617180053642613e6
1.165944326975139e6
1.1708178627293478e6
1.1726150417770622e6
1.1780360230221292e6
1.174444151589093e6
1.1855881417385265e6
100000.00603730585
99999.99017000565
100000.01605006417
99999.97387180109
100000.04257569331
99999.93073302966
100000.11268927607
99999.81683129953
100000.29763460354
99999.51656144911
100000.78524726415
99998.72379582324
100002.07729408328
99996.60727212328
100005.57492275217
99990.73520939042
100015.6730996211
99972.67499009758
100049.59882738069
99904.37347643473
100195.85147040621
99566.86591248609
101008.85004336677
97532.14509186502
106401.87254589201
84569.91598740546
362128.4220592052
845199.7629195269
1.0556902522633236e6
1.0558014060374452e6
1.069188518428265e6
1.0791888316913738e6
1.0891603013429332e6
1.0983995139025748e6
1.107109728329859e6
1.1152776264097209e6
1.1228934327964177e6
1.1300195271580853e6
1.1365397124543162e6
1.142638063249648e6
1.1479428927181426e6
1.153047035805447e6
1.1567991567978358e6
1.1611862356166346e6
1.1624632628079723e6
1.1675190455369754e6
1.163281472906511e6
1.1749693449753616e6
100000.00509830297
99999.99172399513
100000.01353599613
99999.97800263016
100000.03585139177
99999.94176438331
100000.09464809137
99999.84648307603
100000.24888235187
99999.59706811246
100000.65195122485
99998.94552789141
100001.70703302365
99997.22820429366
100004.53148467942
99992.4870202646
100012.76250339065
99977.3878751675
100042.48392444201
99913.37535296836
100191.44219641035
99539.55214968945
101174.21486369795
96907.26648361463
108783.67524370734
77990.43802166321
313840.943344161
797376.7484157354
1.0453945436289523e6
1.0521530508885644e6
1.0637938403537835e6
1.0737961845598372e6
1.0833537097291015e6
1.0922500415810323e6
1.1005699318035827e6
1.108332691289709e6
1.1155230416260557e6
1.1222083691930296e6
1.1282809661168188e6
1.133929879691079e6
1.138804475397994e6
1.1435048505819698e6
1.1469141116925445e6
1.151032421269368e6
1.152105573706641e6
1.1571572914031046e6
1.1526096435311695e6
1.1651382799383923e6
100000.00422572513
99999.99314720358
100000.0112386852
99999.98173543581
100000.02982670408
99999.95152628521
100000.07889312976
99999.8719716336
100000.20771231876
99999.6637147422
100000.54397064545
99999.1211097263
100001.42037075027
99997.69942579078
100003.75061684451
99993.79525446492
100010.54977468216
99981.16855325985
100036.0655449287
99924.08634431357
100175.36436100671
99558.52070256142
101181.98219369893
96770.62700853011
109557.12547569172
75396.66426602862
264408.9036018499
740635.7111681262
1.0302501532262538e6
1.0484789040658893e6
1.0577792120051156e6
1.0678040508736812e6
1.07688189748757e6
1.0853668820447342e6
1.0932166408312246e6
1.1004789279552547e6
1.1071281152915135e6
1.1132278499517262e6
1.1186648887696557e6
1.123614418092357e6
1.1277145549906923e6
1.1315420228726377e6
1.133954895267806e6
1.1369675677717107e6
1.1367346681774238e6
1.1406701183794606e6
1.1344804307911233e6
1.1476135689940872e6
100000.00342532765
99999.99443555242
100000.0091651485
99999.98506756013
100000.02450253625
99999.96002905577
100000.06540347038
99999.89332701375
100000.17412596985
99999.71633123349
100000.46205298512
99999.24812930469
100001.22409976524
99998.0032441706
100003.27593388762
99994.55647234863
100009.27092752236
99983.49372482586
100031.44681552298
99934.26495117095
100151.63871671463
99617.32141427728
101036.10804125242
97132.68513402439
108617.16814321098
77141.69943162962
215821.93653185185
674800.8952214543
1.0084869940265641e6
1.0447071805643963e6
1.0512240543523335e6
1.0612508882683362e6
1.0698017123000012e6
1.0778124070318062e6
1.0851240749705692e6
1.0918080568332246e6
1.0978319046862016e6
1.103259653666558e6
1.107983790545588e6
1.11218423165294e6
1.1155254439813017e6
1.1186031921762018e6
1.1203420775237484e6
1.1227876914547214e6
1.1221662793868238e6
1.1259618098864304e6
1.1194367061070378e6
1.1336981824947838e6
100000.00268886368
99999.99561679139
100000.00726577968
99999.98810807682
100000.01966687838
99999.96769455426
100000.05336410707
99999.91211198327
100000.14516516658
99999.76045127164
100000.39597103752
99999.34521300794
100001.08488122166
99998.1979479438
100003.00886258761
99994.92877935602
100008.69473499172
99984.63569118924
100028.50142924246
99943.18323839757
100123.86184953312
99703.48535797611
100773.72626324827
97890.89894016017
106268.76504255508
82814.57083784135
170417.49546009896
600345.0148062378
978006.0908896723
1.0404812950332701e6
1.0442303832746336e6
1.0541370441947996e6
1.0621227738401548e6
1.0695826202944624e6
1.0762721828693904e6
1.0822708538694922e6
1.087532112290029e6
1.0921041694103836e6
1.0958571569863872e6
1.0989339987201965e6
1.1009451646000175e6
1.1024129561469227e6
1.102124711754608e6
1.1020804563647138e6
1.0981583810728427e6
1.0985665727506354e6
1.0870126387765822e6
1.1011956043825282e6
100000.0020037738
99999.99672885513
100000.00547076251
99999.99100774794
100000.01502052067
99999.97512553002
100000.04158234548
99999.930674928
100000.11624117957
99999.80498325413
100000.32854600096
99999.44524065568
100000.94033395151
99998.40052135468
100002.73342359126
99995.30150093618
100008.14491026646
99985.69329662177
100025.66787636545
99952.3161313492
100093.37474080695
99802.99498902645
100455.11230510661
98855.34461945068
103190.48646471635
91086.80170535257
130925.87792217814
518650.5689655774
936465.7050165326
1.0349826791938422e6
1.0369637660318452e6
1.0464809257282045e6
1.0538872664053505e6
1.060722801305669e6
1.0667169623091351e6
1.0719422664285959e6
1.0763420478370853e6
1.0799521613226333e6
1.0826360996202182e6
1.0845271161762492e6
1.0852563127522978e6
1.0853578931977185e6
1.0837479121495339e6
1.0824248626790196e6
1.0777102252189876e6
1.0772284795751832e6
1.0656881611516664e6
1.0791065644140905e6
100000.00136469629
99999.99779250112
100000.00373799361
99999.99386349403
100000.0103567842
99999.98276026825
100000.02914399485
99999.95090121267
100000.08349877341
99999.8577453266
100000.24403377711
99999.57968642074
100000.72803891197
99998.73358109544
100002.2118971995
99996.12725761301
100006.78469724374
99988.1421208983
100020.57794044219
99964.7377741184
100058.95001508862
99904.64092232707
100143.60256301297
99798.60239855426
100229.14665902489
99760.84993517117
100406.6144798039
432309.63740710553
881469.8535296221
1.0266516846924232e6
1.029603371772333e6
1.0382920754215007e6
1.0451283466180831e6
1.0512663998997759e6
1.056487536858487e6
1.0608358169382312e6
1.0642350335862e6
1.0666871264096494e6
1.0680068690575517e6
1.068248030123571e6
1.0669094813181972e6
1.0643176589627124e6
1.0589897931878075e6
1.0524945245287125e6
1.0398103490293521e6
1.0292161187832172e6
999774.3530429162
1.0064176487079124e6
100000.00078167336
99999.99879079485
100000.00209094213
99999.99664070335
100000.00571525654
99999.99056618866
100000.01602329407
99999.97300344658
100000.0462170102
99999.92071878428
100000.13749647213
99999.76018713186
100000.42162564737
99999.25512165194
100001.3201649192
99997.66426966658
100004.09566024273
99992.9727657745
100011.50107625317
99982.9782087302
100018.84313817511
100001.58833464755
99887.1486975724
100520.55338023069
98109.18886811646
106291.95660259914
81589.18236381258
345271.0293451018
811127.3142516168
1.0130115265221157e6
1.0222879782486226e6
1.0295979470404236e6
1.0358942891866346e6
1.0412768986632471e6
1.0456630243456723e6
1.0490557025645787e6
1.0513612372420384e6
1.0525482642098537e6
1.0523976535291274e6
1.0509077726573704e6
1.0475523110747898e6
1.042581142686712e6
1.0346611958227614e6
1.0251683372280996e6
1.0103842485423188e6
995533.2137983806
967367.1814131074
934160.2144252787
100000.00028048878
99999.99966683009
100000.00062548586
99999.99915603006
100000.00142471492
99999.99793982772
100000.00331202176
99999.99500806928
100000.00794141005
99999.98757657917
100000.02013672679
99999.96711824981
100000.05503419359
99999.90744103485
100000.15430336285
99999.75680640382
100000.32332679762
99999.80749195955
99999.03388609563
100005.96684743569
99975.68771091367
100085.35393585775
99716.56652286577
100899.95381199481
97212.87703353463
108820.72286901437
75440.6103340271
262425.60397458286
724921.8954467518
990771.5936390024
1.0150298023550981e6
1.0204824735546464e6
1.0262497734399927e6
1.0308314525633298e6
1.0343264731897787e6
1.0366902234451639e6
1.0378035128518882e6
1.0375871567534589e6
1.0357520284276896e6
1.03217835631624e6
1.0261541348452471e6
1.0175348537453688e6
1.0043232104985102e6
986285.7973075041
956654.7173544968
913596.5120140628
827631.3312323419
675586.8194009336
99999.99989403148
100000.00034351357
99999.99947750257
100000.00113965847
99999.99799347136
100000.00390564065
99999.99286811994
100000.01337255488
99999.97542031354
100000.0454759416
99999.9163766137
100000.15411034235
99999.71612672684
100000.52457259856
99999.0263637277
100001.82214805514
99996.54483144834
100006.68507431966
99986.66628792777
100027.70316809564
99939.20462201528
100141.50978586129
99648.28458296675
100923.77649430878
97479.43738077261
107385.05782197329
80005.21767094606
188878.70124319487
624231.0139743626
956028.4383183847
1.007475093132144e6
1.0111217560381417e6
1.0162832403045433e6
1.0200315382703937e6
1.0225928636931946e6
1.0238806544470536e6
1.0237482474519734e6
1.0220652426121766e6
1.0184821545871774e6
1.0127695341120716e6
1.0040767003731589e6
991992.736400459
974222.6517444372
949852.3760921154
911871.904337215
856965.312777841
761229.5014835617
604893.6540606373
99999.99964786932
100000.00075802772
99999.99876270794
100000.00235530832
99999.99588301356
100000.00755230313
99999.98648128225
100000.02458483292
99999.95554329934
100000.08091554024
99999.85267401535
100000.26936385274
99999.5062332692
100000.90873088798
99998.3211123044
100003.1163902416
99994.18413204559
100010.92523050417
99979.30015711166
100039.65821180936
99922.77206243738
100153.66260688163
99684.16846727887
100676.819055115
98474.92844039037
103742.32128428256
90763.55053690907
130060.97996351703
512639.05914491956
904254.9217587464
998281.4588356025
1.0017206272407804e6
1.0060724354756586e6
1.0089750018058072e6
1.0105782660032798e6
1.0107715740907198e6
1.0093768832161372e6
1.0062213349033927e6
1.0009003574761562e6
993102.6422615928
981880.7172300892
966675.9017434507
945084.168724032
916063.888522021
872986.5977949628
813701.6717166257
718975.8223638209
585662.49480562
99999.99954671801
100000.00089459305
99999.99851725216
100000.00272075695
99999.99527329631
100000.0084966281
99999.98495775175
100000.02697072539
99999.9517623618
100000.08681968546
99999.84346655988
100000.28351466419
99999.48484956897
100000.93979694568
99998.27964208461
100003.15942630636
99994.18415437634
100010.71585726718
99980.2825021951
100036.08232515272
99934.73778229534
100115.20819021994
99805.42418223138
100297.73081239089
99640.81341844502
100062.67503213751
101750.95060068577
91541.99519837009
396786.4235090265
830958.0422527125
984336.4766784845
992358.3478239997
995659.9723842003
997742.976796407
998395.3081415807
997510.6421446247
994882.6466879803
990310.2458103293
983350.9701417376
973649.0053240547
960214.8045530275
942465.3261590617
918029.303312809
886113.9468543243
840640.8284325947
781406.9630439606
692380.0170943645
581217.4113706059
99999.9995686091
100000.00079840996
99999.99867032646
100000.00236476008
99999.99594658235
100000.00712190944
99999.98763271504
100000.02169543067
99999.96203950989
100000.06676341771
99999.88249146992
100000.20753649875
99999.63280389701
100000.65125521857
99998.84352621241
100002.0541096758
99996.35998720334
100006.40780321379
99988.8831639903
100018.71182282623
99970.41098003059
100040.20888984702
99968.1854326391
99928.94221447512
100518.82994665769
97847.39077637852
107786.30834334577
76027.86798425918
286181.03097657807
734029.6659336289
960763.0046561552
982894.1017685793
985106.5614810929
986419.4499178076
986159.0488727401
984242.0352670774
980447.998312896
974559.6417360933
966119.6195337458
954761.2140730703
939502.3760737859
919816.1766265112
893470.0184868131
860035.6487455675
814144.0024099362
757049.8416358336
675805.2786022675
581706.2609327663
99999.9996700458
100000.00056262099
99999.9990647676
100000.00158649545
99999.99735944698
100000.0044441871
99999.99261276812
100000.01232025378
99999.97964465096
100000.03353628064
99999.9453117879
100000.08833419617
99999.85964013002
100000.21818077135
99999.67273438639
100000.46226846905
99999.42150168159
100000.51557360835
100000.20991756581
99997.02950656755
100011.54620488377
99963.49839778624
100106.92108615993
99692.90192245114
100874.02961968556
97494.56431512914
107420.92890808472
79568.60124206722
190842.54984729114
615542.7327752277
921594.1617397947
972811.9878018518
974604.6056179242
975131.2510094586