# vtk DataFile Version 2.0
JuliaCFD
ASCII
DATASET UNSTRUCTURED_GRID

POINTS 32898 float
0.0 0.0 -0.05
0.0125 0.0 -0.05
0.025 0.0 -0.05
0.0375 0.0 -0.05
0.05 0.0 -0.05
0.0625 0.0 -0.05
0.075 0.0 -0.05
0.0875 0.0 -0.05
0.1 0.0 -0.05
0.1125 0.0 -0.05
0.125 0.0 -0.05
0.1375 0.0 -0.05
0.15 0.0 -0.05
0.1625 0.0 -0.05
0.175 0.0 -0.05
0.1875 0.0 -0.05
0.2 0.0 -0.05
0.2125 0.0 -0.05
0.225 0.0 -0.05
0.2375 0.0 -0.05
0.25 0.0 -0.05
0.2625 0.0 -0.05
0.275 0.0 -0.05
0.2875 0.0 -0.05
0.3 0.0 -0.05
0.3125 0.0 -0.05
0.325 0.0 -0.05
0.3375 0.0 -0.05
0.35 0.0 -0.05
0.3625 0.0 -0.05
0.375 0.0 -0.05
0.3875 0.0 -0.05
0.4 0.0 -0.05
0.4125 0.0 -0.05
0.425 0.0 -0.05
0.4375 0.0 -0.05
0.45 0.0 -0.05
0.4625 0.0 -0.05
0.475 0.0 -0.05
0.4875 0.0 -0.05
0.5 0.0 -0.05
0.5125 0.0 -0.05
0.525 0.0 -0.05
0.5375 0.0 -0.05
0.55 0.0 -0.05
0.5625 0.0 -0.05
0.575 0.0 -0.05
0.5875 0.0 -0.05
0.6 0.0 -0.05
0.0 0.0125 -0.05
0.0125 0.0125 -0.05
0.025 0.0125 -0.05
0.0375 0.0125 -0.05
0.05 0.0125 -0.05
0.0625 0.0125 -0.05
0.075 0.0125 -0.05
0.0875 0.0125 -0.05
0.1 0.0125 -0.05
0.1125 0.0125 -0.05
0.125 0.0125 -0.05
0.1375 0.0125 -0.05
0.15 0.0125 -0.05
0.1625 0.0125 -0.05
0.175 0.0125 -0.05
0.1875 0.0125 -0.05
0.2 0.0125 -0.05
0.2125 0.0125 -0.05
0.225 0.0125 -0.05
0.2375 0.0125 -0.05
0.25 0.0125 -0.05
0.2625 0.0125 -0.05
0.275 0.0125 -0.05
0.2875 0.0125 -0.05
0.3 0.0125 -0.05
0.3125 0.0125 -0.05
0.325 0.0125 -0.05
0.3375 0.0125 -0.05
0.35 0.0125 -0.05
0.3625 0.0125 -0.05
0.375 0.0125 -0.05
0.3875 0.0125 -0.05
0.4 0.0125 -0.05
0.4125 0.0125 -0.05
0.425 0.0125 -0.05
0.4375 0.0125 -0.05
0.45 0.0125 -0.05
0.4625 0.0125 -0.05
0.475 0.0125 -0.05
0.4875 0.0125 -0.05
0.5 0.0125 -0.05
0.5125 0.0125 -0.05
0.525 0.0125 -0.05
0.5375 0.0125 -0.05
0.55 0.0125 -0.05
0.5625 0.0125 -0.05
0.575 0.0125 -0.05
0.5875 0.0125 -0.05
0.6 0.0125 -0.05
0.0 0.025 -0.05
0.0125 0.025 -0.05
0.025 0.025 -0.05
0.0375 0.025 -0.05
0.05 0.025 -0.05
0.0625 0.025 -0.05
0.075 0.025 -0.05
0.0875 0.025 -0.05
0.1 0.025 -0.05
0.1125 0.025 -0.05
0.125 0.025 -0.05
0.1375 0.025 -0.05
0.15 0.025 -0.05
0.1625 0.025 -0.05
0.175 0.025 -0.05
0.1875 0.025 -0.05
0.2 0.025 -0.05
0.2125 0.025 -0.05
0.225 0.025 -0.05
0.2375 0.025 -0.05
0.25 0.025 -0.05
0.2625 0.025 -0.05
0.275 0.025 -0.05
0.2875 0.025 -0.05
0.3 0.025 -0.05
0.3125 0.025 -0.05
0.325 0.025 -0.05
0.3375 0.025 -0.05
0.35 0.025 -0.05
0.3625 0.025 -0.05
0.375 0.025 -0.05
0.3875 0.025 -0.05
0.4 0.025 -0.05
0.4125 0.025 -0.05
0.425 0.025 -0.05
0.4375 0.025 -0.05
0.45 0.025 -0.05
0.4625 0.025 -0.05
0.475 0.025 -0.05
0.4875 0.025 -0.05
0.5 0.025 -0.05
0.5125 0.025 -0.05
0.525 0.025 -0.05
0.5375 0.025 -0.05
0.55 0.025 -0.05
0.5625 0.025 -0.05
0.575 0.025 -0.05
0.5875 0.025 -0.05
0.6 0.025 -0.05
0.0 0.0375 -0.05
0.0125 0.0375 -0.05
0.025 0.0375 -0.05
0.0375 0.0375 -0.05
0.05 0.0375 -0.05
0.0625 0.0375 -0.05
0.075 0.0375 -0.05
0.0875 0.0375 -0.05
0.1 0.0375 -0.05
0.1125 0.0375 -0.05
0.125 0.0375 -0.05
0.1375 0.0375 -0.05
0.15 0.0375 -0.05
0.1625 0.0375 -0.05
0.175 0.0375 -0.05
0.1875 0.0375 -0.05
0.2 0.0375 -0.05
0.2125 0.0375 -0.05
0.225 0.0375 -0.05
0.2375 0.0375 -0.05
0.25 0.0375 -0.05
0.2625 0.0375 -0.05
0.275 0.0375 -0.05
0.2875 0.0375 -0.05
0.3 0.0375 -0.05
0.3125 0.0375 -0.05
0.325 0.0375 -0.05
0.3375 0.0375 -0.05
0.35 0.0375 -0.05
0.3625 0.0375 -0.05
0.375 0.0375 -0.05
0.3875 0.0375 -0.05
0.4 0.0375 -0.05
0.4125 0.0375 -0.05
0.425 0.0375 -0.05
0.4375 0.0375 -0.05
0.45 0.0375 -0.05
0.4625 0.0375 -0.05
0.475 0.0375 -0.05
0.4875 0.0375 -0.05
0.5 0.0375 -0.05
0.5125 0.0375 -0.05
0.525 0.0375 -0.05
0.5375 0.0375 -0.05
0.55 0.0375 -0.05
0.5625 0.0375 -0.05
0.575 0.0375 -0.05
0.5875 0.0375 -0.05
0.6 0.0375 -0.05
0.0 0.05 -0.05
0.0125 0.05 -0.05
0.025 0.05 -0.05
0.0375 0.05 -0.05
0.05 0.05 -0.05
0.0625 0.05 -0.05
0.075 0.05 -0.05
0.0875 0.05 -0.05
0.1 0.05 -0.05
0.1125 0.05 -0.05
0.125 0.05 -0.05
0.1375 0.05 -0.05
0.15 0.05 -0.05
0.1625 0.05 -0.05
0.175 0.05 -0.05
0.1875 0.05 -0.05
0.2 0.05 -0.05
0.2125 0.05 -0.05
0.225 0.05 -0.05
0.2375 0.05 -0.05
0.25 0.05 -0.05
0.2625 0.05 -0.05
0.275 0.05 -0.05
0.2875 0.05 -0.05
0.3 0.05 -0.05
0.3125 0.05 -0.05
0.325 0.05 -0.05
0.3375 0.05 -0.05
0.35 0.05 -0.05
0.3625 0.05 -0.05
0.375 0.05 -0.05
0.3875 0.05 -0.05
0.4 0.05 -0.05
0.4125 0.05 -0.05
0.425 0.05 -0.05
0.4375 0.05 -0.05
0.45 0.05 -0.05
0.4625 0.05 -0.05
0.475 0.05 -0.05
0.4875 0.05 -0.05
0.5 0.05 -0.05
0.5125 0.05 -0.05
0.525 0.05 -0.05
0.5375 0.05 -0.05
0.55 0.05 -0.05
0.5625 0.05 -0.05
0.575 0.05 -0.05
0.5875 0.05 -0.05
0.6 0.05 -0.05
0.0 0.0625 -0.05
0.0125 0.0625 -0.05
0.025 0.0625 -0.05
0.0375 0.0625 -0.05
0.05 0.0625 -0.05
0.0625 0.0625 -0.05
0.075 0.0625 -0.05
0.0875 0.0625 -0.05
0.1 0.0625 -0.05
0.1125 0.0625 -0.05
0.125 0.0625 -0.05
0.1375 0.0625 -0.05
0.15 0.0625 -0.05
0.1625 0.0625 -0.05
0.175 0.0625 -0.05
0.1875 0.0625 -0.05
0.2 0.0625 -0.05
0.2125 0.0625 -0.05
0.225 0.0625 -0.05
0.2375 0.0625 -0.05
0.25 0.0625 -0.05
0.2625 0.0625 -0.05
0.275 0.0625 -0.05
0.2875 0.0625 -0.05
0.3 0.0625 -0.05
0.3125 0.0625 -0.05
0.325 0.0625 -0.05
0.3375 0.0625 -0.05
0.35 0.0625 -0.05
0.3625 0.0625 -0.05
0.375 0.0625 -0.05
0.3875 0.0625 -0.05
0.4 0.0625 -0.05
0.4125 0.0625 -0.05
0.425 0.0625 -0.05
0.4375 0.0625 -0.05
0.45 0.0625 -0.05
0.4625 0.0625 -0.05
0.475 0.0625 -0.05
0.4875 0.0625 -0.05
0.5 0.0625 -0.05
0.5125 0.0625 -0.05
0.525 0.0625 -0.05
0.5375 0.0625 -0.05
0.55 0.0625 -0.05
0.5625 0.0625 -0.05
0.575 0.0625 -0.05
0.5875 0.0625 -0.05
0.6 0.0625 -0.05
0.0 0.075 -0.05
0.0125 0.075 -0.05
0.025 0.075 -0.05
0.0375 0.075 -0.05
0.05 0.075 -0.05
0.0625 0.075 -0.05
0.075 0.075 -0.05
0.0875 0.075 -0.05
0.1 0.075 -0.05
0.1125 0.075 -0.05
0.125 0.075 -0.05
0.1375 0.075 -0.05
0.15 0.075 -0.05
0.1625 0.075 -0.05
0.175 0.075 -0.05
0.1875 0.075 -0.05
0.2 0.075 -0.05
0.2125 0.075 -0.05
0.225 0.075 -0.05
0.2375 0.075 -0.05
0.25 0.075 -0.05
0.2625 0.075 -0.05
0.275 0.075 -0.05
0.2875 0.075 -0.05
0.3 0.075 -0.05
0.3125 0.075 -0.05
0.325 0.075 -0.05
0.3375 0.075 -0.05
0.35 0.075 -0.05
0.3625 0.075 -0.05
0.375 0.075 -0.05
0.3875 0.075 -0.05
0.4 0.075 -0.05
0.4125 0.075 -0.05
0.425 0.075 -0.05
0.4375 0.075 -0.05
0.45 0.075 -0.05
0.4625 0.075 -0.05
0.475 0.075 -0.05
0.4875 0.075 -0.05
0.5 0.075 -0.05
0.5125 0.075 -0.05
0.525 0.075 -0.05
0.5375 0.075 -0.05
0.55 0.075 -0.05
0.5625 0.075 -0.05
0.575 0.075 -0.05
0.5875 0.075 -0.05
0.6 0.075 -0.05
0.0 0.0875 -0.05
0.0125 0.0875 -0.05
0.025 0.0875 -0.05
0.0375 0.0875 -0.05
0.05 0.0875 -0.05
0.0625 0.0875 -0.05
0.075 0.0875 -0.05
0.0875 0.0875 -0.05
0.1 0.0875 -0.05
0.1125 0.0875 -0.05
0.125 0.0875 -0.05
0.1375 0.0875 -0.05
0.15 0.0875 -0.05
0.1625 0.0875 -0.05
0.175 0.0875 -0.05
0.1875 0.0875 -0.05
0.2 0.0875 -0.05
0.2125 0.0875 -0.05
0.225 0.0875 -0.05
0.2375 0.0875 -0.05
0.25 0.0875 -0.05
0.2625 0.0875 -0.05
0.275 0.0875 -0.05
0.2875 0.0875 -0.05
0.3 0.0875 -0.05
0.3125 0.0875 -0.05
0.325 0.0875 -0.05
0.3375 0.0875 -0.05
0.35 0.0875 -0.05
0.3625 0.0875 -0.05
0.375 0.0875 -0.05
0.3875 0.0875 -0.05
0.4 0.0875 -0.05
0.4125 0.0875 -0.05
0.425 0.0875 -0.05
0.4375 0.0875 -0.05
0.45 0.0875 -0.05
0.4625 0.0875 -0.05
0.475 0.0875 -0.05
0.4875 0.0875 -0.05
0.5 0.0875 -0.05
0.5125 0.0875 -0.05
0.525 0.0875 -0.05
0.5375 0.0875 -0.05
0.55 0.0875 -0.05
0.5625 0.0875 -0.05
0.575 0.0875 -0.05
0.5875 0.0875 -0.05
0.6 0.0875 -0.05
0.0 0.1 -0.05
0.0125 0.1 -0.05
0.025 0.1 -0.05
0.0375 0.1 -0.05
0.05 0.1 -0.05
0.0625 0.1 -0.05
0.075 0.1 -0.05
0.0875 0.1 -0.05
0.1 0.1 -0.05
0.1125 0.1 -0.05
0.125 0.1 -0.05
0.1375 0.1 -0.05
0.15 0.1 -0.05
0.1625 0.1 -0.05
0.175 0.1 -0.05
0.1875 0.1 -0.05
0.2 0.1 -0.05
0.2125 0.1 -0.05
0.225 0.1 -0.05
0.2375 0.1 -0.05
0.25 0.1 -0.05
0.2625 0.1 -0.05
0.275 0.1 -0.05
0.2875 0.1 -0.05
0.3 0.1 -0.05
0.3125 0.1 -0.05
0.325 0.1 -0.05
0.3375 0.1 -0.05
0.35 0.1 -0.05
0.3625 0.1 -0.05
0.375 0.1 -0.05
0.3875 0.1 -0.05
0.4 0.1 -0.05
0.4125 0.1 -0.05
0.425 0.1 -0.05
0.4375 0.1 -0.05
0.45 0.1 -0.05
0.4625 0.1 -0.05
0.475 0.1 -0.05
0.4875 0.1 -0.05
0.5 0.1 -0.05
0.5125 0.1 -0.05
0.525 0.1 -0.05
0.5375 0.1 -0.05
0.55 0.1 -0.05
0.5625 0.1 -0.05
0.575 0.1 -0.05
0.5875 0.1 -0.05
0.6 0.1 -0.05
0.0 0.1125 -0.05
0.0125 0.1125 -0.05
0.025 0.1125 -0.05
0.0375 0.1125 -0.05
0.05 0.1125 -0.05
0.0625 0.1125 -0.05
0.075 0.1125 -0.05
0.0875 0.1125 -0.05
0.1 0.1125 -0.05
0.1125 0.1125 -0.05
0.125 0.1125 -0.05
0.1375 0.1125 -0.05
0.15 0.1125 -0.05
0.1625 0.1125 -0.05
0.175 0.1125 -0.05
0.1875 0.1125 -0.05
0.2 0.1125 -0.05
0.2125 0.1125 -0.05
0.225 0.1125 -0.05
0.2375 0.1125 -0.05
0.25 0.1125 -0.05
0.2625 0.1125 -0.05
0.275 0.1125 -0.05
0.2875 0.1125 -0.05
0.3 0.1125 -0.05
0.3125 0.1125 -0.05
0.325 0.1125 -0.05
0.3375 0.1125 -0.05
0.35 0.1125 -0.05
0.3625 0.1125 -0.05
0.375 0.1125 -0.05
0.3875 0.1125 -0.05
0.4 0.1125 -0.05
0.4125 0.1125 -0.05
0.425 0.1125 -0.05
0.4375 0.1125 -0.05
0.45 0.1125 -0.05
0.4625 0.1125 -0.05
0.475 0.1125 -0.05
0.4875 0.1125 -0.05
0.5 0.1125 -0.05
0.5125 0.1125 -0.05
0.525 0.1125 -0.05
0.5375 0.1125 -0.05
0.55 0.1125 -0.05
0.5625 0.1125 -0.05
0.575 0.1125 -0.05
0.5875 0.1125 -0.05
0.6 0.1125 -0.05
0.0 0.125 -0.05
0.0125 0.125 -0.05
0.025 0.125 -0.05
0.0375 0.125 -0.05
0.05 0.125 -0.05
0.0625 0.125 -0.05
0.075 0.125 -0.05
0.0875 0.125 -0.05
0.1 0.125 -0.05
0.1125 0.125 -0.05
0.125 0.125 -0.05
0.1375 0.125 -0.05
0.15 0.125 -0.05
0.1625 0.125 -0.05
0.175 0.125 -0.05
0.1875 0.125 -0.05
0.2 0.125 -0.05
0.2125 0.125 -0.05
0.225 0.125 -0.05
0.2375 0.125 -0.05
0.25 0.125 -0.05
0.2625 0.125 -0.05
0.275 0.125 -0.05
0.2875 0.125 -0.05
0.3 0.125 -0.05
0.3125 0.125 -0.05
0.325 0.125 -0.05
0.3375 0.125 -0.05
0.35 0.125 -0.05
0.3625 0.125 -0.05
0.375 0.125 -0.05
0.3875 0.125 -0.05
0.4 0.125 -0.05
0.4125 0.125 -0.05
0.425 0.125 -0.05
0.4375 0.125 -0.05
0.45 0.125 -0.05
0.4625 0.125 -0.05
0.475 0.125 -0.05
0.4875 0.125 -0.05
0.5 0.125 -0.05
0.5125 0.125 -0.05
0.525 0.125 -0.05
0.5375 0.125 -0.05
0.55 0.125 -0.05
0.5625 0.125 -0.05
0.575 0.125 -0.05
0.5875 0.125 -0.05
0.6 0.125 -0.05
0.0 0.1375 -0.05
0.0125 0.1375 -0.05
0.025 0.1375 -0.05
0.0375 0.1375 -0.05
0.05 0.1375 -0.05
0.0625 0.1375 -0.05
0.075 0.1375 -0.05
0.0875 0.1375 -0.05
[...]
CELL_DATA 16128
SCALARS P float 1
LOOKUP_TABLE default
99999.99417088016
100000.00922198509
99999.98537632039
100000.02312380864
99999.96369045932
100000.05696596562
99999.91135077765
100000.13752137638
99999.78850640696
100000.32308379165
99999.51193781594
100000.72804486674
99998.93446418033
100001.51693826383
99997.94039252218
100002.5493436659
99997.52081959706
100000.32221889179
100008.32382748398
99964.02986818287
100118.29708652453
99644.14716822359
101048.12795354542
97030.81872271776
108996.58484455457
76553.85470164898
221134.59329308767
693497.9228213937
1.051436235762569e6
1.080111411270414e6
1.0865504428280015e6
1.1004069979159723e6
1.111032573280922e6
1.1221059636265691e6
1.132281779244435e6
1.1420544270530008e6
1.1511952028051477e6
1.1598377054388016e6
1.1678060654931713e6
1.1753165600918217e6
1.1819356418762386e6
1.1883223949595604e6
1.1932259050476367e6
1.1987137128026723e6
1.201048545513765e6
1.2066287152922824e6
1.204124605994165e6
1.2131923546298945e6
99999.99420595169
100000.00914297103
99999.98550448468
100000.02286002156
99999.96416325303
100000.05603701656
99999.91308398684
100000.13420253037
99999.79472283139
100000.31144688911
99999.53336740656
100000.68909845222
99999.00380039663
100001.39650980502
99998.14261299766
100002.22550915231
99998.00289889687
99999.69422704264
100008.91330337172
99964.16588029856
100115.54780018206
99654.33404931721
101019.48274723944
97100.16115161244
108828.96656310407
76821.46725429053
218409.63879871316
690611.1824080085
1.0537821572208e6
1.0852494067642197e6
1.0920068740107894e6
1.1063374996445456e6
1.1171342233290572e6
1.1283344406760482e6
1.1385965332897885e6
1.148447632560608e6
1.1576669293564472e6
1.1663921331890512e6
1.1744466080925048e6
1.1820443842495384e6
1.188745896512348e6
1.1952076466883172e6
1.200167042915729e6
1.2056983042112368e6
1.2080337981823399e6
1.2136263102800834e6
1.2110194644048333e6
1.2201841551209858e6
99999.99434106873
100000.00895540041
99999.98577313099
100000.02250092455
99999.96460032772
100000.05558386256
99999.91331789877
100000.13471831052
99999.79218260395
100000.3186748757
99999.51583755857
100000.72821352149
99998.92054841077
100001.56812709612
99997.79631758394
100002.91385558523
99996.6476313435
100002.35013019445
100003.70956813972
99974.42047366088
100095.13145757202
99695.54833168216
100933.76972474268
97275.52566404981
108418.60747244772
77514.40133622114
210401.15519257457
677199.7151428129
1.0464405574251327e6
1.0820367717042235e6
1.0875223635458045e6
1.1017421211647682e6
1.1122685450583282e6
1.1232797095204352e6
1.1333637473367376e6
1.1430445062061506e6
1.152096784910221e6
1.1606543444595593e6
1.1685438704610982e6
1.1759784145871121e6
1.182527738958518e6
1.1888445921799797e6
1.1936842723176237e6
1.1991084255955215e6
1.2013730188072277e6
1.206926611462791e6
1.2042498740496782e6
1.213578408667676e6
99999.9945366476
100000.00868092873
99999.98616799898
100000.02196382616
99999.96527436015
100000.05482960209
99999.91388401554
100000.13495245269
99999.78964468844
100000.32665457565
99999.49580461824
100000.77351951147
99998.8236763027
100001.76791644348
99997.39355251752
100003.71428912574
99995.06762806157
100005.46994324411
99997.50343686722
99986.95971092985
100069.22116066796
99750.49442585986
100812.32272227865
97541.67472248246
107750.26966474272
78770.34737052285
198799.4377347143
658638.1375663937
1.0393962057022387e6
1.0825485446194576e6
1.0869001777798817e6
1.1015311691572408e6
1.1120739564433082e6
1.123128440540386e6
1.1332236008439134e6
1.142906329454174e6
1.1519608424826711e6
1.160523933134031e6
1.1684284187398115e6
1.1758856955591387e6
1.1824708415093985e6
1.1888288515864229e6
1.193721781919673e6
1.1991985195020968e6
1.201508826694029e6
1.207131796580423e6
1.2043899172553257e6
1.213972912307464e6
99999.99479500584
100000.00830647521
99999.98671840415
100000.02118022092
99999.96633363601
100000.05346557313
99999.91541179069
100000.13365378934
99999.78955959681
100000.33066622747
99999.4822363881
100000.80820785808
99998.74425836813
100001.93921370008
99997.0360275801
100004.44728678236
99993.57271520361
100008.53321701914
99991.13071232944
100000.52930833046
100039.40876836024
99817.97051340785
100652.57740226007
97915.24483549867
106759.06770242355
80814.86248877231
183767.05405444955
632740.2660659256
1.0276650315844123e6
1.0811954177751078e6
1.083595169434782e6
1.0983284315546153e6
1.10859832883584e6
1.1194500522753955e6
1.1293418132964084e6
1.1388220739325376e6
1.1476793371035273e6
1.1560459564067402e6
1.1637599343395203e6
1.1710291555680817e6
1.1774380157754652e6
1.183623326869624e6
1.188364512072001e6
1.1936967265775837e6
1.195882196630256e6
1.2014357810270202e6
1.198517712008963e6
1.2083667564033356e6
99999.9951145918
100000.0078265142
99999.98744092496
100000.02010500347
99999.96788410195
100000.0512614631
99999.91838533895
100000.12984235802
99999.79387373594
100000.3269239898
99999.4823969381
100000.81853375027
99998.7080361692
100002.03430532297
99996.81150123625
100004.9526963213
99992.45344456565
100011.01652380763
99985.52504153024
100013.48896053675
100008.47623607096
99893.57081409653
100460.65239988443
98394.4178927502
105427.3272375021
83807.66826653804
166266.02655219162
600295.3493599353
1.0123167640886588e6
1.0802812446484754e6
1.0806473335229263e6
1.095650504018928e6
1.1057765006967455e6
1.1165190595669514e6
1.126291687369258e6
1.135641983634889e6
1.14437246142195e6
1.1526141913758714e6
1.1602147616587807e6
1.1673807628831125e6
1.1737080120004518e6
1.179825471120498e6
1.1845278850574072e6
1.1898360385313407e6
1.1920073767599997e6
1.1976092325754543e6
1.194561757439166e6
1.2047915432166262e6
99999.99548772114
100000.00724994783
99999.98832635337
100000.01874418269
99999.96993471157
100000.04817217198
99999.92293815588
100000.12319584606
99999.80330879158
100000.31389317161
99999.49945616149
100000.79807036991
99998.72788606315
100002.02752067473
99996.771056738
100005.12857928325
99991.91412144617
100012.50771798058
99981.52266888176
100024.13700021147
99979.86415989047
99970.49050392279
100249.40223007619
98959.68128219816
103789.57694878147
87818.5075964243
147191.52789126217
561087.3696851076
991716.7446071001
1.07856343687747e6
1.076747751735157e6
1.091821415215653e6
1.1016997837122914e6
1.1121980506003269e6
1.1217329503920223e6
1.1308299371939143e6
1.139307894618826e6
1.1472913297268923e6
1.1546354568001772e6
1.1615424146467785e6
1.1676179580942949e6
1.173481527810548e6
1.177944641048373e6
1.1830200976212597e6
1.1849653769407913e6
1.1904391337434817e6
1.1870836108704468e6
1.1977141445124696e6
99999.99590057635
100000.00660069447
99999.98933795575
100000.01715908335
99999.97238765155
100000.04435885725
99999.92880881071
100000.11414204931
99999.81717331315
100000.29268023808
99999.53169701328
100000.74935510519
99998.80044605567
100001.92226422815
99996.91464161556
100004.96118163498
99992.01198495163
100012.82900823087
99979.62056782396
100031.17439139487
99956.8714286549
100040.70820364363
100038.2453759097
99568.3451475073
101958.16956141892
92712.99427028952
127741.35886279022
515536.1946793079
965102.2075911723
1.0761579678195906e6
1.0725844318434238e6
1.087579200974378e6
1.0972651419671054e6
1.1075060082146735e6
1.1168028444778807e6
1.1256373530597044e6
1.1338535046281007e6
1.1415704225881165e6
1.1486556659176007e6
1.1553119198445817e6
1.16116149347476e6
1.1668209636629836e6
1.1711241232622007e6
1.176078873246361e6
1.1779306859887692e6
1.1834315162695623e6
1.1798620110224036e6
1.1910555616521551e6
99999.99633592316
100000.00591169273
99999.99042125711
100000.01544784129
99999.97507042499
100000.04013169193
99999.93543915563
100000.10369177234
99999.8336341744
100000.26660798046
99999.57311611266
100000.6831581651
99998.90660381943
100001.75186031601
99997.18570074877
100004.5423368782
99992.60962035292
100012.15325825351
99979.70906750347
100034.27882837015
99941.48297349822
100097.12672800572
99849.71412162638
100157.34132326845
100121.51208349208
98083.45813351567
109314.06203358666
464220.19418480754
931167.7181555107
1.072339395314633e6
1.0680336231081337e6
1.0825751845950247e6
1.0920677946817998e6
1.1019539270117073e6
1.1109322012335993e6
1.1194100703007623e6
1.1272603871983483e6
1.1345910367913216e6
1.1412763132978368e6
1.1475120687561336e6
1.1529265850962007e6
1.1581254568329896e6
1.1619510900983005e6
1.166418015576853e6
1.1677451443671375e6
1.1728787294249425e6
1.1686676355798591e6
1.180409049914596e6
99999.99677750625
100000.00521467609
99999.99152174068
100000.01371086777
99999.97779957831
100000.03583115048
99999.94219301165
100000.09304071066
99999.85043583732
100000.23993958943
99999.61565946859
100000.61466720869
99999.01785421802
100001.56943224744
99997.48637778743
100004.04911813655
99993.39595857369
100011.00035161643
99981.00361567453
100034.38062771464
99933.54909087345
100135.63583496517
99704.40331891242
100652.90729634455
98518.89655815704
103220.9570977514
93520.36396214332
408222.0436400843
888696.5898661475
1.0663185664826913e6
1.0633585988042108e6
1.0769412090096658e6
1.0862970643993055e6
1.0957643403502868e6
1.1043791611548949e6
1.1124456877348926e6
1.119873347639009e6
1.126761364176262e6
1.1329976084099428e6
1.1387814875166758e6
1.1437635814851506e6
1.1485568807189076e6
1.1520389306655722e6
1.156238278459002e6
1.157362727412067e6
1.1624883640458577e6
1.1579764530301786e6
1.17056736556681e6
99999.99721421108
100000.00453000762
99999.99260328802
100000.0120137363
99999.98045219699
100000.03168936314
99999.94862278702
100000.08305896969
99999.86587096326
100000.2160414899
99999.6526693061
100000.55705731062
99999.10815916362
100001.42624785201
99997.71639778528
100003.67556623554
99994.00222294107
100010.05117660905
99982.31277499854
100033.36224103549
99930.81629927659
100156.30342090323
99615.36043246236
100988.20623047918
97386.2181783516
107216.48272365899
82014.18147767532
349144.3736193357
836481.4855858942
1.056779480872493e6
1.0586678457173193e6
1.07061179711068e6
1.0798791684913826e6
1.0888397065224096e6
1.0970127481423211e6
1.1045711193411693e6
1.111458755756715e6
1.1177576579146457e6
1.1233548851449091e6
1.1284345528889697e6
1.1326369452064324e6
1.1365511715207933e6
1.1390305563160372e6
1.1421164201225538e6
1.14193145640411e6
1.1459335417709192e6
1.1397782264232803e6
1.1529831524187804e6
99999.99764199615
100000.00386140723
99999.9936588661
100000.01036445261
99999.98301355368
100000.0277319442
99999.95467163972
100000.07387977598
99999.87961517021
100000.19570331312
99999.6822559868
100000.51477254232
99999.16728378543
100001.34544301163
99997.82443864446
100003.5332180521
99994.19115566398
100009.79483880484
99982.66772986641
100033.00231830703
99930.44326116204
100161.95627356648
99586.36545029651
101119.87725198113
96896.53495019412
109203.7182773459
76138.76078384944
289159.83031959797
773659.846489065
1.0419636609295647e6
1.054066780053584e6
1.0636290571392383e6
1.072856182234225e6
1.0812402986401874e6
1.0889035492114448e6
1.0958763271191146e6
1.1021386772585134e6
1.107761311853156e6
1.1126413257924367e6
1.1169666504420869e6
1.1204054864464228e6
1.1235657555224283e6
1.1253700493941298e6
1.1278832148437013e6
1.1273155678616876e6
1.1311873939489683e6
1.1247006001221945e6
1.1390438616678666e6
99999.99806237542
100000.00319884585
99999.99470714128
100000.00871834594
99999.98557378947
100000.02377515
99999.9606994948
100000.0648105577
99999.89297447761
100000.17650937088
99999.70879707173
100000.48006110142
99999.2085491762
100001.30499218409
99997.84478218853
100003.57372868578
99994.0175656431
100010.2052319594
99981.95533208792
100033.81280468754
99930.93387903833
100155.75948739995
99612.09446946984
101045.24539985303
97087.13599188408
108817.37138494609
76403.6823604212
230867.60495462146
699985.768844785
1.0196430682456605e6
1.049486210525746e6
1.056050935034249e6
1.0652258760468585e6
1.072967989332991e6
1.080032803727164e6
1.0863137882096246e6
1.0918115875809614e6
1.0965725387289634e6
1.100474436314779e6
1.1036674269465255e6
1.1057661476165473e6
1.1073045559032056e6
1.1070672007782597e6
1.107072709724032e6
1.1031853502436925e6
1.1036568613868188e6
1.0921243432477827e6
1.1064026072376894e6
99999.99847770938
100000.0025294041
99999.99577444147
100000.0070127487
99999.98826628149
100000.0195376283
99999.96728492992
100000.05468064356
99999.90828749344
100000.15384523777
99999.74130726414
100000.4355051172
99999.26526658754
100001.24201872532
99997.89439125998
100003.58400741644
99993.858778628
100010.64316662819
99981.17760533822
100034.43969942463
99933.40413780416
100139.10565501229
99680.75660506146
100807.45832377403
97824.56080797975
106476.10510506555
82079.60007286484
177232.98397107908
616126.9229159884
987189.6342177145
1.0445401661752462e6
1.0480217725550833e6
1.0570155683607366e6
1.0640745434446675e6
1.0704570780133558e6
1.0759591610893153e6
1.0805911677046954e6
1.0843826517636192e6
1.0872068796667408e6
1.0892039031947732e6
1.090010959721972e6
1.0901722003951063e6
1.0886062895197573e6
1.0873291910347485e6
1.0826546028849697e6
1.0822452989993638e6
1.0707415583358374e6
1.084253736755428e6
99999.99888529225
100000.00185173821
99999.9968690568
100000.00521863381
99999.99116931175
100000.01483024741
99999.97486210632
100000.04253320463
99999.92761151354
100000.12337381914
99999.78878738428
100000.36265617805
99999.37477792948
100001.08176336698
99998.12087870369
100003.27695931621
99994.26075894407
100010.10210385945
99982.09349655978
100032.0889596283
99941.3649698755
100110.77378335355
99778.50206492738
100481.51310513624
98845.01106724169
103148.03016687947
91170.98318207331
131702.05579405717
523982.57744441996
941634.0402367748
1.0382145263810029e6
1.0397459895330464e6
1.0482427864885005e6
1.0545996775853115e6
1.060206603843498e6
1.0648268223823907e6
1.0684512282605784e6
1.0710751706857872e6
1.072523447344293e6
1.072856256937439e6
1.0715777940482236e6
1.069023723832395e6
1.0637105460078157e6
1.0572241974219282e6
1.0445256507326509e6
1.0339527478612426e6
1.0044639381724795e6
1.0112201833670771e6
99999.9992731419
100000.00118698558
99999.99796022582
100000.00338445978
99999.99421705955
100000.0097362708
99999.9833569321
100000.02835564785
99999.95126160842
100000.08394895085
99999.85445017532
100000.25346292836
99999.55604835926
100000.78143484305
99998.61785225675
100002.45379149339
99995.63374342141
100007.76705324918
99986.23925445409
100024.1304277795
99958.48126351037
100068.8871269639
99892.28622956554
100147.48971314485
99846.65320274174
99991.61390478819
100579.84485779378
98096.3946386181
427118.6717198027
879966.0687136359
1.0284855035584628e6
1.0314405234384233e6
1.0389304734337443e6
1.044602147653605e6
1.0493572842534885e6
1.0530186671592174e6
1.0555406788247984e6
1.0568885817156227e6
1.0568529344155153e6
1.0554382527910648e6
1.0521238407695256e6
1.047169549841359e6
1.039244075394198e6
1.0297429121192887e6
1.0149416843847248e6
1.0001093484554858e6
971949.3249860478
938646.2340653882
99999.99962017481
100000.00057942126
99999.99897445356
100000.00164649963
99999.99717152784
100000.00467938907
99999.99202727852
100000.01344245802
99999.97700295724
100000.03938121481
99999.93189826107
100000.1184262125
99999.79235215254
100000.36645649406
99999.34934878857
100001.15899520298
99997.93742042346
100003.63812141443
99993.72644617842
100010.27994555442
99984.97099590504
100015.40622441644
100008.75046790588
99868.41755148432
100581.1516625304
97905.8787083326
107015.91667019596
79475.34876912666
330889.29277542874
800070.4994563569
1.0121327753225958e6
1.023243986772933e6
1.0291223472878732e6
1.034144004926576e6
1.0379877020956563e6
1.0406204410906044e6
1.0419417496671724e6
1.0418749583633539e6
1.0401390688813986e6
1.0366208490709047e6
1.0306126200251002e6
1.0219778280844357e6
1.0087151726649508e6
990603.5158406694
960841.6547594283
917631.4844441615
831305.6951377849
678779.4606402568
99999.99990152496
100000.00008441583
99999.99981463938
100000.00019292826
99999.99968360702
100000.00031701509
99999.99964252906
100000.00009840699
100000.00052145563
99999.99773699742
100000.00605925755
99999.98566741335
100000.03131828656
99999.93410144724
100000.13541214936
99999.72381467417
100000.56658040878
99998.8114042071
100002.59244537987
99994.0172395738
100014.70435063759
99961.33300948293
100106.82890015976
99690.74326748376
100914.44424284704
97260.27088174195
108559.21955675063
75986.3548365537
241628.71516337575
701929.5904064518
984981.7082180319
1.015095734533661e6
1.0189513154982806e6
1.0233193785139339e6
1.0262158094704788e6
1.0277746908929069e6
1.0278422092874489e6
1.0262965612916475e6
1.0227952436220368e6
1.0171158714299619e6
1.0084107815019715e6
996276.1800560929
978408.8791773051
953909.1320329206
915720.0770285681
860588.3037737763
764388.1144507218
607587.3694983711
100000.00009730249
99999.99974781812
100000.00039609411
99999.99919276792
100000.00142655948
99999.99728555274
100000.00496730513
99999.99072113037
100000.01716305404
99999.96805080776
100000.05938614499
99999.88927836891
100000.20669588578
99999.61307352471
100000.72628494118
99998.63165943838
100002.58985652805
99995.06687722603
100009.47988527919
99981.53867357902
100036.64408529259
99925.09376910121
100159.20798634214
99642.47576904771
100853.90200697533
97831.22417593836
106034.41639776947
83753.02894772147
165811.6244615376
588096.6582494503
942053.5573510721
1.0062993958758287e6
1.008656007908416e6
1.012239865745099e6
1.0141714177299343e6
1.0146325656181949e6
1.0134285308326284e6
1.0103962202566301e6
1.0051384458261536e6
997350.902995661
986088.1167788797
970798.7969822246
949067.9274759333
919872.7593141409
876530.2540393685
816974.982084978
721749.8734807625
588027.8430714197
100000.00020087592
99999.99958622441
100000.0006828547
99999.9987223673
100000.0022397351
99999.99591582491
100000.0073228543
99999.98669059652
100000.02413021974
99999.95597397914
100000.08047929419
99999.85222393814
100000.27225531613
99999.49634719349
100000.9352732695
99998.25636669865
100003.26267688123
99993.87384837467
100011.53605802236
99978.22661780677
100041.1437032017
99922.21155597997
100146.87856775054
99722.67459724683
100523.25411410654
99005.13541268447
101962.7200082517
96067.02798988475
110357.60138330908
464389.25481131714
877611.2609405682
994513.1251835274
998432.643810149
1.0009905533591945e6
1.0019726880179382e6
1.0013448588244595e6
998895.3334559953
994431.1123718211
987515.8192870431
977800.8898837066
964298.1778141231
946432.7316179748
921821.4986308345
889694.0627643381
843918.1712882104
784381.1156875876
694859.5975836413
583306.3797039236
100000.00022265564
99999.99957826533
100000.00070567042
99999.99872804518
100000.00220643179
99999.99607247235
100000.00691961731
99999.98768334929
100000.021898848
99999.96085064844
100000.07012962941
99999.8738530807
100000.22761944565
99999.5877396219
100000.74914586148
99998.63440627411
100002.49495620675
99995.43739536808
100008.33002286602
99984.88227689212
100027.0541236996
99952.93516608942
100077.13876119762
99889.23914202454
100101.10643548392
100134.08325347966
98734.14025769358
105575.04463356551
80896.1155673941
340809.3829732687
787183.7937430141
975067.2473709251
988231.1528648753
989619.4566539831
989717.2006044112
988050.7655703914
984424.9084886153
978630.3557036992
970215.9198528233
958822.5158677174
943469.6690373388
923639.2720204812
897088.0420339211
863411.0613271153
817192.6913795801
759769.1004131968
678046.4281018384
583550.5190677444
100000.00018723652
99999.9996718215
100000.00055135785
99999.99904621564
100000.0016202824
99999.99721207946
100000.00475951664
99999.99183268352
100000.01396362459
99999.97609485831
100000.04082094877
99999.93037060305
100000.1183846987
99999.7994735449
100000.33762113522
99999.43649796958
100000.92765011034
99998.50700437346
100002.30808167586
99996.70764735102
100003.83728122103
99998.44924197585
99988.20289996092
100062.1894429003
99766.8105490221
100777.91272422983
97501.85522046199
108030.6304448514
76497.29112704341
229555.32639957443
670699.1478378067
941617.9894865191
977725.4814036761
978275.0189463894
977526.4152269538
974891.6255533952