# vtk DataFile Version 2.0
JuliaCFD
ASCII
DATASET UNSTRUCTURED_GRID

POINTS 32898 float
0.0 0.0 -0.05
0.0125 0.0 -0.05
0.025 0.0 -0.05
0.0375 0.0 -0.05
0.05 0.0 -0.05
0.0625 0.0 -0.05
0.075 0.0 -0.05
0.0875 0.0 -0.05
0.1 0.0 -0.05
0.1125 0.0 -0.05
0.125 0.0 -0.05
0.1375 0.0 -0.05
0.15 0.0 -0.05
0.1625 0.0 -0.05
0.175 0.0 -0.05
0.1875 0.0 -0.05
0.2 0.0 -0.05
0.2125 0.0 -0.05
0.225 0.0 -0.05
0.2375 0.0 -0.05
0.25 0.0 -0.05
0.2625 0.0 -0.05
0.275 0.0 -0.05
0.2875 0.0 -0.05
0.3 0.0 -0.05
0.3125 0.0 -0.05
0.325 0.0 -0.05
0.3375 0.0 -0.05
0.35 0.0 -0.05
0.3625 0.0 -0.05
0.375 0.0 -0.05
0.3875 0.0 -0.05
0.4 0.0 -0.05
0.4125 0.0 -0.05
0.425 0.0 -0.05
0.4375 0.0 -0.05
0.45 0.0 -0.05
0.4625 0.0 -0.05
0.475 0.0 -0.05
0.4875 0.0 -0.05
0.5 0.0 -0.05
0.5125 0.0 -0.05
0.525 0.0 -0.05
0.5375 0.0 -0.05
0.55 0.0 -0.05
0.5625 0.0 -0.05
0.575 0.0 -0.05
0.5875 0.0 -0.05
0.6 0.0 -0.05
0.0 0.0125 -0.05
0.0125 0.0125 -0.05
0.025 0.0125 -0.05
0.0375 0.0125 -0.05
0.05 0.0125 -0.05
0.0625 0.0125 -0.05
0.075 0.0125 -0.05
0.0875 0.0125 -0.05
0.1 0.0125 -0.05
0.1125 0.0125 -0.05
0.125 0.0125 -0.05
0.1375 0.0125 -0.05
0.15 0.0125 -0.05
0.1625 0.0125 -0.05
0.175 0.0125 -0.05
0.1875 0.0125 -0.05
0.2 0.0125 -0.05
0.2125 0.0125 -0.05
0.225 0.0125 -0.05
0.2375 0.0125 -0.05
0.25 0.0125 -0.05
0.2625 0.0125 -0.05
0.275 0.0125 -0.05
0.2875 0.0125 -0.05
0.3 0.0125 -0.05
0.3125 0.0125 -0.05
0.325 0.0125 -0.05
0.3375 0.0125 -0.05
0.35 0.0125 -0.05
0.3625 0.0125 -0.05
0.375 0.0125 -0.05
0.3875 0.0125 -0.05
0.4 0.0125 -0.05
0.4125 0.0125 -0.05
0.425 0.0125 -0.05
0.4375 0.0125 -0.05
0.45 0.0125 -0.05
0.4625 0.0125 -0.05
0.475 0.0125 -0.05
0.4875 0.0125 -0.05
0.5 0.0125 -0.05
0.5125 0.0125 -0.05
0.525 0.0125 -0.05
0.5375 0.0125 -0.05
0.55 0.0125 -0.05
0.5625 0.0125 -0.05
0.575 0.0125 -0.05
0.5875 0.0125 -0.05
0.6 0.0125 -0.05
0.0 0.025 -0.05
0.0125 0.025 -0.05
0.025 0.025 -0.05
0.0375 0.025 -0.05
0.05 0.025 -0.05
0.0625 0.025 -0.05
0.075 0.025 -0.05
0.0875 0.025 -0.05
0.1 0.025 -0.05
0.1125 0.025 -0.05
0.125 0.025 -0.05
0.1375 0.025 -0.05
0.15 0.025 -0.05
0.1625 0.025 -0.05
0.175 0.025 -0.05
0.1875 0.025 -0.05
0.2 0.025 -0.05
0.2125 0.025 -0.05
0.225 0.025 -0.05
0.2375 0.025 -0.05
0.25 0.025 -0.05
0.2625 0.025 -0.05
0.275 0.025 -0.05
0.2875 0.025 -0.05
0.3 0.025 -0.05
0.3125 0.025 -0.05
0.325 0.025 -0.05
0.3375 0.025 -0.05
0.35 0.025 -0.05
0.3625 0.025 -0.05
0.375 0.025 -0.05
0.3875 0.025 -0.05
0.4 0.025 -0.05
0.4125 0.025 -0.05
0.425 0.025 -0.05
0.4375 0.025 -0.05
0.45 0.025 -0.05
0.4625 0.025 -0.05
0.475 0.025 -0.05
0.4875 0.025 -0.05
0.5 0.025 -0.05
0.5125 0.025 -0.05
0.525 0.025 -0.05
0.5375 0.025 -0.05
0.55 0.025 -0.05
0.5625 0.025 -0.05
0.575 0.025 -0.05
0.5875 0.025 -0.05
0.6 0.025 -0.05
0.0 0.0375 -0.05
0.0125 0.0375 -0.05
0.025 0.0375 -0.05
0.0375 0.0375 -0.05
0.05 0.0375 -0.05
0.0625 0.0375 -0.05
0.075 0.0375 -0.05
0.0875 0.0375 -0.05
0.1 0.0375 -0.05
0.1125 0.0375 -0.05
0.125 0.0375 -0.05
0.1375 0.0375 -0.05
0.15 0.0375 -0.05
0.1625 0.0375 -0.05
0.175 0.0375 -0.05
0.1875 0.0375 -0.05
0.2 0.0375 -0.05
0.2125 0.0375 -0.05
0.225 0.0375 -0.05
0.2375 0.0375 -0.05
0.25 0.0375 -0.05
0.2625 0.0375 -0.05
0.275 0.0375 -0.05
0.2875 0.0375 -0.05
0.3 0.0375 -0.05
0.3125 0.0375 -0.05
0.325 0.0375 -0.05
0.3375 0.0375 -0.05
0.35 0.0375 -0.05
0.3625 0.0375 -0.05
0.375 0.0375 -0.05
0.3875 0.0375 -0.05
0.4 0.0375 -0.05
0.4125 0.0375 -0.05
0.425 0.0375 -0.05
0.4375 0.0375 -0.05
0.45 0.0375 -0.05
0.4625 0.0375 -0.05
0.475 0.0375 -0.05
0.4875 0.0375 -0.05
0.5 0.0375 -0.05
0.5125 0.0375 -0.05
0.525 0.0375 -0.05
0.5375 0.0375 -0.05
0.55 0.0375 -0.05
0.5625 0.0375 -0.05
0.575 0.0375 -0.05
0.5875 0.0375 -0.05
0.6 0.0375 -0.05
0.0 0.05 -0.05
0.0125 0.05 -0.05
0.025 0.05 -0.05
0.0375 0.05 -0.05
0.05 0.05 -0.05
0.0625 0.05 -0.05
0.075 0.05 -0.05
0.0875 0.05 -0.05
0.1 0.05 -0.05
0.1125 0.05 -0.05
0.125 0.05 -0.05
0.1375 0.05 -0.05
0.15 0.05 -0.05
0.1625 0.05 -0.05
0.175 0.05 -0.05
0.1875 0.05 -0.05
0.2 0.05 -0.05
0.2125 0.05 -0.05
0.225 0.05 -0.05
0.2375 0.05 -0.05
0.25 0.05 -0.05
0.2625 0.05 -0.05
0.275 0.05 -0.05
0.2875 0.05 -0.05
0.3 0.05 -0.05
0.3125 0.05 -0.05
0.325 0.05 -0.05
0.3375 0.05 -0.05
0.35 0.05 -0.05
0.3625 0.05 -0.05
0.375 0.05 -0.05
0.3875 0.05 -0.05
0.4 0.05 -0.05
0.4125 0.05 -0.05
0.425 0.05 -0.05
0.4375 0.05 -0.05
0.45 0.05 -0.05
0.4625 0.05 -0.05
0.475 0.05 -0.05
0.4875 0.05 -0.05
0.5 0.05 -0.05
0.5125 0.05 -0.05
0.525 0.05 -0.05
0.5375 0.05 -0.05
0.55 0.05 -0.05
0.5625 0.05 -0.05
0.575 0.05 -0.05
0.5875 0.05 -0.05
0.6 0.05 -0.05
0.0 0.0625 -0.05
0.0125 0.0625 -0.05
0.025 0.0625 -0.05
0.0375 0.0625 -0.05
0.05 0.0625 -0.05
0.0625 0.0625 -0.05
0.075 0.0625 -0.05
0.0875 0.0625 -0.05
0.1 0.0625 -0.05
0.1125 0.0625 -0.05
0.125 0.0625 -0.05
0.1375 0.0625 -0.05
0.15 0.0625 -0.05
0.1625 0.0625 -0.05
0.175 0.0625 -0.05
0.1875 0.0625 -0.05
0.2 0.0625 -0.05
0.2125 0.0625 -0.05
0.225 0.0625 -0.05
0.2375 0.0625 -0.05
0.25 0.0625 -0.05
0.2625 0.0625 -0.05
0.275 0.0625 -0.05
0.2875 0.0625 -0.05
0.3 0.0625 -0.05
0.3125 0.0625 -0.05
0.325 0.0625 -0.05
0.3375 0.0625 -0.05
0.35 0.0625 -0.05
0.3625 0.0625 -0.05
0.375 0.0625 -0.05
0.3875 0.0625 -0.05
0.4 0.0625 -0.05
0.4125 0.0625 -0.05
0.425 0.0625 -0.05
0.4375 0.0625 -0.05
0.45 0.0625 -0.05
0.4625 0.0625 -0.05
0.475 0.0625 -0.05
0.4875 0.0625 -0.05
0.5 0.0625 -0.05
0.5125 0.0625 -0.05
0.525 0.0625 -0.05
0.5375 0.0625 -0.05
0.55 0.0625 -0.05
0.5625 0.0625 -0.05
0.575 0.0625 -0.05
0.5875 0.0625 -0.05
0.6 0.0625 -0.05
0.0 0.075 -0.05
0.0125 0.075 -0.05
0.025 0.075 -0.05
0.0375 0.075 -0.05
0.05 0.075 -0.05
0.0625 0.075 -0.05
0.075 0.075 -0.05
0.0875 0.075 -0.05
0.1 0.075 -0.05
0.1125 0.075 -0.05
0.125 0.075 -0.05
0.1375 0.075 -0.05
0.15 0.075 -0.05
0.1625 0.075 -0.05
0.175 0.075 -0.05
0.1875 0.075 -0.05
0.2 0.075 -0.05
0.2125 0.075 -0.05
0.225 0.075 -0.05
0.2375 0.075 -0.05
0.25 0.075 -0.05
0.2625 0.075 -0.05
0.275 0.075 -0.05
0.2875 0.075 -0.05
0.3 0.075 -0.05
0.3125 0.075 -0.05
0.325 0.075 -0.05
0.3375 0.075 -0.05
0.35 0.075 -0.05
0.3625 0.075 -0.05
0.375 0.075 -0.05
0.3875 0.075 -0.05
0.4 0.075 -0.05
0.4125 0.075 -0.05
0.425 0.075 -0.05
0.4375 0.075 -0.05
0.45 0.075 -0.05
0.4625 0.075 -0.05
0.475 0.075 -0.05
0.4875 0.075 -0.05
0.5 0.075 -0.05
0.5125 0.075 -0.05
0.525 0.075 -0.05
0.5375 0.075 -0.05
0.55 0.075 -0.05
0.5625 0.075 -0.05
0.575 0.075 -0.05
0.5875 0.075 -0.05
0.6 0.075 -0.05
0.0 0.0875 -0.05
0.0125 0.0875 -0.05
0.025 0.0875 -0.05
0.0375 0.0875 -0.05
0.05 0.0875 -0.05
0.0625 0.0875 -0.05
0.075 0.0875 -0.05
0.0875 0.0875 -0.05
0.1 0.0875 -0.05
0.1125 0.0875 -0.05
0.125 0.0875 -0.05
0.1375 0.0875 -0.05
0.15 0.0875 -0.05
0.1625 0.0875 -0.05
0.175 0.0875 -0.05
0.1875 0.0875 -0.05
0.2 0.0875 -0.05
0.2125 0.0875 -0.05
0.225 0.0875 -0.05
0.2375 0.0875 -0.05
0.25 0.0875 -0.05
0.2625 0.0875 -0.05
0.275 0.0875 -0.05
0.2875 0.0875 -0.05
0.3 0.0875 -0.05
0.3125 0.0875 -0.05
0.325 0.0875 -0.05
0.3375 0.0875 -0.05
0.35 0.0875 -0.05
0.3625 0.0875 -0.05
0.375 0.0875 -0.05
0.3875 0.0875 -0.05
0.4 0.0875 -0.05
0.4125 0.0875 -0.05
0.425 0.0875 -0.05
0.4375 0.0875 -0.05
0.45 0.0875 -0.05
0.4625 0.0875 -0.05
0.475 0.0875 -0.05
0.4875 0.0875 -0.05
0.5 0.0875 -0.05
0.5125 0.0875 -0.05
0.525 0.0875 -0.05
0.5375 0.0875 -0.05
0.55 0.0875 -0.05
0.5625 0.0875 -0.05
0.575 0.0875 -0.05
0.5875 0.0875 -0.05
0.6 0.0875 -0.05
0.0 0.1 -0.05
0.0125 0.1 -0.05
0.025 0.1 -0.05
0.0375 0.1 -0.05
0.05 0.1 -0.05
0.0625 0.1 -0.05
0.075 0.1 -0.05
0.0875 0.1 -0.05
0.1 0.1 -0.05
0.1125 0.1 -0.05
0.125 0.1 -0.05
0.1375 0.1 -0.05
0.15 0.1 -0.05
0.1625 0.1 -0.05
0.175 0.1 -0.05
0.1875 0.1 -0.05
0.2 0.1 -0.05
0.2125 0.1 -0.05
0.225 0.1 -0.05
0.2375 0.1 -0.05
0.25 0.1 -0.05
0.2625 0.1 -0.05
0.275 0.1 -0.05
0.2875 0.1 -0.05
0.3 0.1 -0.05
0.3125 0.1 -0.05
0.325 0.1 -0.05
0.3375 0.1 -0.05
0.35 0.1 -0.05
0.3625 0.1 -0.05
0.375 0.1 -0.05
0.3875 0.1 -0.05
0.4 0.1 -0.05
0.4125 0.1 -0.05
0.425 0.1 -0.05
0.4375 0.1 -0.05
0.45 0.1 -0.05
0.4625 0.1 -0.05
0.475 0.1 -0.05
0.4875 0.1 -0.05
0.5 0.1 -0.05
0.5125 0.1 -0.05
0.525 0.1 -0.05
0.5375 0.1 -0.05
0.55 0.1 -0.05
0.5625 0.1 -0.05
0.575 0.1 -0.05
0.5875 0.1 -0.05
0.6 0.1 -0.05
0.0 0.1125 -0.05
0.0125 0.1125 -0.05
0.025 0.1125 -0.05
0.0375 0.1125 -0.05
0.05 0.1125 -0.05
0.0625 0.1125 -0.05
0.075 0.1125 -0.05
0.0875 0.1125 -0.05
0.1 0.1125 -0.05
0.1125 0.1125 -0.05
0.125 0.1125 -0.05
0.1375 0.1125 -0.05
0.15 0.1125 -0.05
0.1625 0.1125 -0.05
0.175 0.1125 -0.05
0.1875 0.1125 -0.05
0.2 0.1125 -0.05
0.2125 0.1125 -0.05
0.225 0.1125 -0.05
0.2375 0.1125 -0.05
0.25 0.1125 -0.05
0.2625 0.1125 -0.05
0.275 0.1125 -0.05
0.2875 0.1125 -0.05
0.3 0.1125 -0.05
0.3125 0.1125 -0.05
0.325 0.1125 -0.05
0.3375 0.1125 -0.05
0.35 0.1125 -0.05
0.3625 0.1125 -0.05
0.375 0.1125 -0.05
0.3875 0.1125 -0.05
0.4 0.1125 -0.05
0.4125 0.1125 -0.05
0.425 0.1125 -0.05
0.4375 0.1125 -0.05
0.45 0.1125 -0.05
0.4625 0.1125 -0.05
0.475 0.1125 -0.05
0.4875 0.1125 -0.05
0.5 0.1125 -0.05
0.5125 0.1125 -0.05
0.525 0.1125 -0.05
0.5375 0.1125 -0.05
0.55 0.1125 -0.05
0.5625 0.1125 -0.05
0.575 0.1125 -0.05
0.5875 0.1125 -0.05
0.6 0.1125 -0.05
0.0 0.125 -0.05
0.0125 0.125 -0.05
0.025 0.125 -0.05
0.0375 0.125 -0.05
0.05 0.125 -0.05
0.0625 0.125 -0.05
0.075 0.125 -0.05
0.0875 0.125 -0.05
0.1 0.125 -0.05
0.1125 0.125 -0.05
0.125 0.125 -0.05
0.1375 0.125 -0.05
0.15 0.125 -0.05
0.1625 0.125 -0.05
0.175 0.125 -0.05
0.1875 0.125 -0.05
0.2 0.125 -0.05
0.2125 0.125 -0.05
0.225 0.125 -0.05
0.2375 0.125 -0.05
0.25 0.125 -0.05
0.2625 0.125 -0.05
0.275 0.125 -0.05
0.2875 0.125 -0.05
0.3 0.125 -0.05
0.3125 0.125 -0.05
0.325 0.125 -0.05
0.3375 0.125 -0.05
0.35 0.125 -0.05
0.3625 0.125 -0.05
0.375 0.125 -0.05
0.3875 0.125 -0.05
0.4 0.125 -0.05
0.4125 0.125 -0.05
0.425 0.125 -0.05
0.4375 0.125 -0.05
0.45 0.125 -0.05
0.4625 0.125 -0.05
0.475 0.125 -0.05
0.4875 0.125 -0.05
0.5 0.125 -0.05
0.5125 0.125 -0.05
0.525 0.125 -0.05
0.5375 0.125 -0.05
0.55 0.125 -0.05
0.5625 0.125 -0.05
0.575 0.125 -0.05
0.5875 0.125 -0.05
0.6 0.125 -0.05
0.0 0.1375 -0.05
0.0125 0.1375 -0.05
0.025 0.1375 -0.05
0.0375 0.1375 -0.05
0.05 0.1375 -0.05
0.0625 0.1375 -0.05
0.075 0.1375 -0.05
0.0875 0.1375 -0.05
[...]
CELL_DATA 16128
SCALARS P float 1
LOOKUP_TABLE default
100000.00573833194
99999.98971581193
100000.01668270322
99999.97120352731
100000.04790062438
99999.91844358426
100000.13717191869
99999.76714228069
100000.39441737298
99999.32797631265
100001.14935837711
99998.01656225756
100003.46438185064
99993.8277454192
100011.31002791204
99978.40292473805
100043.41743669026
99906.9772858435
100212.53085676729
99484.88615729545
101325.63001678554
96559.61943559282
109904.84527609302
75428.81269070903
236516.86108445853
701471.5782953078
1.0255329542332297e6
1.0495716937721854e6
1.0588730773622459e6
1.0710743220127092e6
1.082083558107568e6
1.0928852965875575e6
1.1031870407065088e6
1.11307534028004e6
1.122507676522165e6
1.1315112010709674e6
1.140027736909025e6
1.148114330357512e6
1.155615161604438e6
1.162721773485807e6
1.1690043562535013e6
1.1750964861685839e6
1.1797641145397385e6
1.1850244223410096e6
1.187203103765165e6
1.1925978076072142e6
1.1900316294623616e6
1.1989936456525088e6
100000.00575006283
99999.98977578322
100000.01671516756
99999.97120519943
100000.04810463409
99999.91804857642
100000.13822249617
99999.76501623678
100000.39880249952
99999.31963230157
100001.1647537778
99997.98970319964
100003.50852934858
99993.76192170224
100011.39254753488
99978.345193396
100043.31587071033
99907.64311044812
100210.34608891734
99491.07529326466
101310.21400599605
96595.78675195447
109819.43255847026
75561.39804149918
233898.33121203686
699095.1048756308
1.0279620119399002e6
1.0542361698546845e6
1.0639109186589483e6
1.076492241758228e6
1.0876616493255238e6
1.0985771000571202e6
1.1089659863211755e6
1.1189399786325148e6
1.128463370960495e6
1.137566143488658e6
1.1461893846803752e6
1.15438829160386e6
1.162003602020245e6
1.1692237766947332e6
1.1756131354916068e6
1.1818030274348424e6
1.1865483307969563e6
1.1918725246044816e6
1.1940712518893867e6
1.1994938175247116e6
1.196838920483605e6
1.205900141519182e6
100000.00480819015
99999.99150050161
100000.0138747562
99999.97620433048
100000.03963730432
99999.93274086158
100000.11304186546
99999.80854616337
100000.3237935837
99999.44931481744
100000.94061006678
99998.3777634659
100002.83632635762
99994.92799783712
100009.36823574045
99981.86799006595
100037.17794472567
99918.4016841542
100191.41225671765
99524.82566956776
101248.54801428165
96707.82407211476
109580.74772288269
75911.85369119827
226200.14666778932
687219.2953036278
1.0218569728292321e6
1.0512003373886119e6
1.0599427758163104e6
1.0723828851086635e6
1.0833213623584649e6
1.0940651619990044e6
1.104285502680638e6
1.1140933912271622e6
1.1234466489496687e6
1.1323742852829709e6
1.1408186870074356e6
1.1488360530352343e6
1.1562718569813701e6
1.163314958764603e6
1.1695389003838906e6
1.1755711892466408e6
1.1801841619622034e6
1.1853884512398955e6
1.1875038134124915e6
1.1928749525646134e6
1.1901417200526912e6
1.1993592196192434e6
100000.00352449274
99999.99386055638
100000.01000109891
99999.9830142321
100000.02812393571
99999.95267364504
100000.0789541222
99999.8673080053
100000.22283900795
99999.62324296896
100000.64114358928
99998.89405476757
100001.94589578875
99996.46614192819
100006.70730997926
99986.49074100665
100029.11042756675
99932.65200562429
100165.89163188038
99571.81326124346
101157.93411718371
96885.63916672865
109160.91883198114
76640.96843702535
214979.46435758795
670864.2483193782
1.0163191969013747e6
1.0514486562686488e6
1.0594508568534472e6
1.0721720992194954e6
1.0831246706261162e6
1.0938956291260899e6
1.1041135822946818e6
1.1139128087777395e6
1.1232553835549362e6
1.1321755618096609e6
1.140619445853155e6
1.1486444307186066e6
1.1560991672119366e6
1.163170254868163e6
1.1694355883643227e6
1.1755145752924767e6
1.1801859439809977e6
1.185446897880563e6
1.1876116266104882e6
1.1930532599040156e6
1.19025786592746e6
1.199727728979993e6
100000.0020541872
99999.99655448942
100000.00559050021
99999.99074199818
100000.01509335027
99999.97516228122
100000.04060006414
99999.9332372569
100000.1098541925
99999.81745705481
100000.30732533478
99999.46902481667
100000.95394446413
99998.18354216791
100003.72032937678
99991.73190523569
100019.80599535909
99949.53486911242
100134.39469827522
99633.12433423247
101030.73530137177
97156.20480972182
108469.29244220746
77987.54845665622
200321.63537766086
647982.3268994535
1.0069636858990978e6
1.050032471181469e6
1.0566146286397607e6
1.0693542228588555e6
1.0800642129340207e6
1.0906522535851619e6
1.1006771379760194e6
1.110285163886969e6
1.1194345060673938e6
1.1281597362656011e6
1.1364085862474744e6
1.1442384435388867e6
1.1515024163587405e6
1.1583850025587755e6
1.1644731674983297e6
1.1703783014164662e6
1.1748962511957607e6
1.1800098783765642e6
1.1820466858018958e6
1.1874133184677288e6
1.1844395883866502e6
1.1941708193404563e6
100000.00057144294
99999.99924618061
100000.00119532883
99999.99839532873
100000.00224243788
99999.99723087136
100000.003122583
99999.99739857504
100000.00027583125
100000.00531964967
99999.98490413823
100000.02446502734
99999.99319652602
99999.85705447113
100000.77686325957
99996.99217236873
100010.19833230077
99967.68844385471
100098.59370291562
99707.60723524903
100864.03538956904
97536.40104773683
107441.56993380621
80167.75022384344
183039.14002435113
619208.8936991558
994776.9928470778
1.0490075633733114e6
1.054073508681383e6
1.0669854231998525e6
1.0775456616307586e6
1.0880281553367833e6
1.0979245788156919e6
1.107398987530364e6
1.116410758348202e6
1.1249983113281282e6
1.1331139883473068e6
1.1408172274262868e6
1.1479675774240766e6
1.1547485264861626e6
1.1607572213481031e6
1.16659676041772e6
1.1710777012260098e6
1.1761674240685024e6
1.1781900425754017e6
1.183600952031563e6
1.1804993240337197e6
1.1906066936549712e6
99999.9992309736
100000.00163856935
99999.99730287853
100000.00509945708
99999.99106708077
100000.01625174364
99999.9710773638
100000.05183658586
99999.90795095242
100000.16269266017
99999.71590363544
100000.48725748528
99999.19060309521
100001.2668816091
99998.25518687627
100001.6259542637
100001.36875759835
99985.34944633004
100061.17721269478
99791.64074465937
100661.17953274147
98030.34542197103
106049.55628168974
83352.19101141332
163870.93609304458
584255.4136242954
978390.6464940362
1.047369006329464e6
1.0506810167752155e6
1.0636466954905642e6
1.0739499264799277e6
1.0842190441603246e6
1.0938845233322822e6
1.1031218367169104e6
1.1118897792026377e6
1.12022776170724e6
1.1280908237425163e6
1.1355383304250864e6
1.1424346559418454e6
1.148960058285917e6
1.1547207796095842e6
1.1603102949007035e6
1.1645555382902937e6
1.1694144761427054e6
1.171212855280975e6
1.176492651943416e6
1.1730839916698022e6
1.1835862153698183e6
99999.99814196044
100000.00352519855
99999.99425092168
100000.010252613
99999.98259499398
100000.03042080298
99999.94760340836
100000.09103316045
99999.84259050031
100000.27238390301
99999.53088063835
100000.80281073463
99998.64414419254
100002.23631757635
99996.47523694894
100005.05170367192
99994.37515541297
100000.59039783255
100025.63729199505
99878.90185489414
100433.74819730314
98621.3045951187
104331.65501797429
87574.97813575898
143815.26815396154
543350.0177096312
957172.8104065188
1.045296967397114e6
1.0469836015264019e6
1.0599626417131827e6
1.0700259386938934e6
1.0800756677416738e6
1.0895043448423583e6
1.0984935269613029e6
1.107004294740557e6
1.1150780132756543e6
1.1226744928024802e6
1.1298555079305826e6
1.136493910585729e6
1.1427713564495312e6
1.1483092359328936e6
1.153697666703545e6
1.1577851450214055e6
1.1625230909152774e6
1.1642276608796644e6
1.1695291450206973e6
1.1659059812626513e6
1.1769631846935751e6
99999.99735273118
100000.00482213662
99999.99217389546
100000.01362825796
99999.97720198453
100000.03909928439
99999.93379337905
100000.11307915715
99999.80758603867
100000.32822978905
99999.44127742344
100000.94939249325
99998.39600855953
100002.68172186219
99995.60638715392
100006.91952771619
99989.95715527378
100011.81367795689
99995.52720029699
99961.4124707865
100200.272250532
99268.58614155673
102406.86888226296
92659.19501501274
124036.21199743479
496816.00523188576
930017.066864988
1.0423048929059537e6
1.0428399076761968e6
1.0556535879836793e6
1.06544437209623e6
1.0752055713478415e6
1.084332058741966e6
1.0930007148772092e6
1.101175608739933e6
1.108897272004272e6
1.1161274661991866e6
1.1229263550758983e6
1.1291695335800315e6
1.1350330583699753e6
1.1401432698825265e6
1.1450790505082824e6
1.1486974960258694e6
1.1529532673867047e6
1.1541421909015672e6
1.159078064514503e6
1.1548118898314587e6
1.166407482121883e6
99999.9968506488
100000.00557042853
99999.99099743247
100000.01538936562
99999.97457692
100000.04289582104
99999.92850447095
100000.12009780212
99999.79907726159
100000.33711155993
99999.43512522087
100000.94715258476
99998.41389503561
100002.65074148314
99995.59035194424
100007.26455401922
99988.23504112917
100018.33735616758
99973.33395113108
100031.52995764776
99983.7617506102
99908.75411463788
100471.74651825723
98152.7010760329
105897.15639825602
445363.76607955276
895854.665914871
1.037898846689388e6
1.0384314088295823e6
1.0508326513080755e6
1.0603619847096358e6
1.0697917856346848e6
1.078578454098298e6
1.0868816023139614e6
1.0946711256325496e6
1.1019867863033072e6
1.1087941845465652e6
1.1151553456625047e6
1.1209549413356148e6
1.126373456189589e6
1.1310577648811906e6
1.135593666381532e6
1.1388719607123157e6
1.1428593217237468e6
1.1438450771453448e6
1.148772737485402e6
1.1441957827054234e6
1.1566235440768881e6
99999.99657799902
100000.00590504176
99999.99048933387
100000.01599596153
99999.97387646552
100000.04340098078
99999.92879544053
100000.11753481638
99999.80705831377
100000.3173159006
99999.47925838339
100000.85565390771
99998.59232154486
100002.32637750213
99996.12049060344
100006.57151677161
99988.53584388967
100020.82006578096
99959.49318131585
100084.06661633826
99806.67900579699
100465.74376890685
98769.435280993
103327.92688347101
90885.44039096402
390117.7622450024
853554.890981162
1.0312024011196723e6
1.0338352506077032e6
1.0454515464628108e6
1.0547297949683312e6
1.0637676893644428e6
1.0721579750798936e6
1.0800278795085545e6
1.0873535844353864e6
1.094170027612683e6
1.1004410767689706e6
1.1062222336020858e6
1.111393210414171e6
1.1161203048932804e6
1.12003911510937e6
1.1237118974504883e6
1.1260049190410483e6
1.128897164767721e6
1.1285905626422574e6
1.1324068100849323e6
1.126190327161791e6
1.139215163752877e6
99999.99645980244
100000.00599635411
99999.99035805093
100000.016018971
99999.97405468987
100000.04258709025
99999.93099895555
100000.11223851565
99999.81878486996
100000.2925279888
99999.52979516723
100000.75583147601
99998.78307013157
100001.97705267361
99996.71979325003
100005.6624031163
99989.52563031382
100021.18646022394
99952.08286124887
100117.89474668774
99684.94619820552
100868.40268133665
97535.56483684239
107298.86909830612
80430.9404172075
332690.97877867793
802132.5204370883
1.0209985694099544e6
1.0291706678158386e6
1.0395389356955368e6
1.048591870314271e6
1.0571851065298622e6
1.065129205297555e6
1.0725061234730883e6
1.0793001309557594e6
1.0855411635893376e6
1.0911931296835332e6
1.0963096630796066e6
1.1007762311305192e6
1.1047634484122095e6
1.1079320125120594e6
1.1108634350643533e6
1.1124870039914479e6
1.1148160612810983e6
1.1141167817491873e6
1.117800056982517e6
1.1112369652082422e6
1.1253709411118836e6
99999.99643466035
100000.00598196148
99999.99036925077
100000.01591438866
99999.97427544146
100000.04203445838
99999.93215682483
100000.10978605162
99999.82374323955
100000.28260493567
99999.54922825308
100000.71845339939
99998.85305157512
100001.85139123583
99996.92937846284
100005.36634051037
99989.7626792168
100021.76582299772
99947.92088984622
100135.26544452431
99625.20076665576
101067.17744440502
96944.34903282602
109248.93319317959
75576.87692957713
275153.360647309
740947.490081551
1.0056574412206487e6
1.0244886732996152e6
1.0331184517878396e6
1.0419620685797579e6
1.050056938722243e6
1.057498052636111e6
1.064312720008231e6
1.070490786277903e6
1.076051515910431e6
1.0809491327857075e6
1.0852201061228807e6
1.088727700753483e6
1.0916054602227556e6
1.093460306828026e6
1.0948000514271772e6
1.094419506594682e6
1.0942892272959657e6
1.0903155669330503e6
1.0906321892377657e6
1.0790691080400601e6
1.0931078307516833e6
99999.99647721526
100000.00591439723
99999.99043655535
100000.01584333276
99999.97425047976
100000.04227967613
99999.93126806579
100000.11208226351
99999.8182718256
100000.29467612806
99999.52355737564
100000.77120056469
99998.74734908
100002.05825769475
99996.53443300717
100006.10147272992
99988.44875945468
100024.01289615313
99944.51492139723
100139.64015576695
99624.33200352702
101052.01266856199
97038.10176864889
108893.30267151257
76523.25108643375
219884.49062135007
669953.287733203
983184.8853949182
1.0197176193254078e6
1.026264826401189e6
1.0348781837874958e6
1.0424277280783069e6
1.0493102973939308e6
1.0554987065267365e6
1.060985901428409e6
1.0657796864677793e6
1.0698253143533897e6
1.0731464443384053e6
1.075599106745548e6
1.077307196539545e6
1.0778960565076196e6
1.0778876321390676e6
1.0761975992682755e6
1.0747984894190417e6
1.0700297871957067e6
1.0694540441579716e6
1.0578866838918414e6
1.0711690588420534e6
99999.99660275377
100000.00574807826
99999.99064536976
100000.01562128418
99999.97434370655
100000.04259877588
99999.92974094617
100000.11641844657
99999.80752089388
100000.31907537451
99999.47070454882
100000.88135175033
99998.52461247194
100002.49511471967
99995.70751141546
100007.59406741148
99985.9664233229
100027.53165078204
99941.72260771427
100133.41288123668
99671.39935488808
100859.38059000099
97694.71737647432
106650.39752875135
82412.77853260723
169536.60603517093
589915.0547574497
951253.7363644174
1.0144824337760037e6
1.0190929116775044e6
1.0273745757580245e6
1.0343395589523084e6
1.040605923111825e6
1.0461027803216903e6
1.050818054220785e6
1.0547415738019e6
1.0577969657708332e6
1.0599741838107281e6
1.061080376654365e6
1.0611604802171313e6
1.0597085764154585e6
1.0570399734344308e6
1.0516756063519565e6
1.0451598584895424e6
1.0325004278457611e6
1.0218897567914495e6
992547.3993948373
999031.9833102429
99999.99685123283
100000.00537440322
99999.99119299097
100000.0148336495
99999.97536375758
100000.04138856215
99999.93070759132
100000.11669940947
99999.80328660356
100000.33310945523
99999.43408347452
100000.96646991055
99998.33996056898
100002.87382913618
99994.97354444278
100008.91622616061
99983.86933812586
100029.97263893166
99942.23500308281
100116.4832258512
99751.93680758115
100560.63258148986
98667.32462970719
103422.99516612965
91338.22375422734
127160.99440603874
502687.4697074922
907274.867460749
1.0078348448575216e6
1.0117440553466306e6
1.0194804357844207e6
1.0258389211866887e6
1.0314381853113244e6
1.0361890954028073e6
1.0400668247286039e6
1.0430416552162693e6
1.0450146031589702e6
1.0459430474438289e6
1.0455990267538227e6
1.0439730722896749e6
1.0405332895860692e6
1.0355176517615045e6
1.0275932228664302e6
1.0181098139815977e6
1.0033624202231114e6
988512.6228210289
960390.3124571114
927357.4296764667
99999.99725719483
100000.00469215162
99999.99226607053
100000.01307923172
99999.9781090741
100000.0370370509
99999.93737725265
100000.10656344773
99999.81811891987
100000.31215172938
99999.46179567133
100000.93318521533
99998.37326014457
100002.85171720419
99994.97470782931
100008.89593122862
99984.20173743922
100028.06655821172
99950.31817461723
100086.78491757046
99852.14355015066
100236.1685809476
99667.39552546776
100284.24234443968
100485.84707550534
96090.34654356819
411579.38102381583
848671.3119169032
997931.1537302601
1.00433328273901e6
1.0112120577954585e6
1.0169666915216835e6
1.0218602652695751e6
1.0258222161353574e6
1.0288069074638304e6
1.0307616352557075e6
1.0315560395174203e6
1.0310996825456691e6
1.0290960228423971e6
1.0254165431908004e6
1.0193460001009615e6
1.0107309793853395e6
997582.1078617458
979651.8057798105
950222.9157479757
907420.401637642
822042.6520417789
670802.2739666494
99999.99781944398
100000.00368115849
99999.99391069017
100000.01023273298
99999.98286688053
100000.02890140867
99999.95114176796
100000.08306146647
99999.85818142793
100000.24348783976
99999.57981709985
100000.72897390883
99998.72957405374
100002.22154236874
99996.1119575539
100006.78056169621
99988.30826390137
100019.63419051075
99968.80478054391
100043.3413517064
99960.60953296839
99950.23769393592
100447.62955956183
98093.58030417019
106891.21536056776
78904.71130104274
321456.54525409336
773678.4247094548
981898.5092454217
996889.0797267752
1.002597055898244e6
1.0077701323940181e6
1.0119373207243175e6
1.0150838554860373e6
1.0171412327061907e6
1.018033920536841e6
1.0176006140911733e6
1.0157010226430524e6
1.011978356056277e6
1.0061954199053141e6
997499.8646171443
985473.9124668417
967836.2715140815
943658.0128780727
905997.3483664902
851466.413525928
756474.0974886608
600965.1495738942
99999.99848578393
100000.00244167383
99999.99596132911
100000.00659200392
99999.9891233585
100000.01788976537
99999.97041224847
100000.048989302
99999.918569021
100000.13572262775
99999.773088635
100000.38014491093
99999.3629951307
100001.06360351076
99998.2435762699
100002.82640060387
99995.70464516964
100005.66781713066
99995.46320816789
99991.82093375675
100061.750648001
99748.72546991444
100860.62553645368
97253.73153001723
108743.6879527252
75589.96126617846
237987.3548752405
682415.5549277163
956103.7763003841
989290.9380136902
993733.7765970355
998324.3911175049
1.0017541119840874e6
1.0040705767027795e6
1.0051846339524433e6
1.0050005384725983e6
1.0033254486002306e6
999979.8609787163
994550.7611610204
986720.0401276093
975539.9219106738
960445.2080085214
939048.8269505713
910289.8596274254
867614.7022790138
808775.94786473
714834.1471856004
582268.77552242
99999.99916185021
100000.00117560741
99999.99807194725
100000.00281972157
99999.99566502885
100000.00628136008
99999.99092817222
100000.01236606999
99999.98415544177
100000.0174784909
99999.98732367877
99999.98983658304
100000.07739922384
99999.75073620061
100000.66227481684
99998.36931881949
100003.88951925888
99990.78411106126
100021.98658458116
99946.50160208944
100132.96002163347
99659.71934383883
100891.0765222402
97626.83821046136
106646.9337724229
82676.85560685204
166710.2886004678
577255.2874825221
916393.930809316
980960.3153547132
984802.5193815846
988728.7507356397
991410.2011000061
992890.3789361129
993063.5293876196
991814.8191616976
988927.0358035244
984189.7527370361
977153.756868014
967455.74754692
954106.2949079771
936515.2048555292
912328.5275703532
880730.3459264293
835713.1477615085
776970.8818488384
688714.0105075174
578247.9936180965
99999.99974133137
100000.00011480766
99999.99984135535
99999.99969271073
100000.00105308341
99999.99680764634
100000.00752551961
99999.9830206334
100000.03618432733
99999.92466779408
100000.15358006394
99999.69064065561
100000.61757406862
99998.77373511187
100002.42739320654
99995.19903048927
100009.50395347041
99981.13172763838
100037.61289176907
99924.5379421148
100152.3373389008
99689.60914816133
100636.5864867507
98686.42696468526
102769.41881596888
94428.78030369552
113320.44205551497
463084.62098353956
858086.4543972227
970056.9966999025
975929.0773032358
979052.5912555238
980988.5271604412
981642.5521203002
980898.54953059
978623.59896324
974586.5942277629
968556.9502125054
960069.4627843796
948749.5460942911
933614.6011317536
914129.5411444519
888077.0654570758
855004.2687560066
809602.2373116219
753031.1304299117
672526.8559691457
579103.7523555746
100000.0001436759
99999.99943056915
100000.00097281057
99999.99778050711
100000.00423835135
99999.99144814553
100000.01648402544
99999.9679952406
100000.06128732205
99999.88276556847
100000.22316715297
99999.57581514255
100000.80475712077
99998.47475661155
100002.88718114179
99994.54388776494
100010.27846059726
99980.7471048594
100035.67338400951
99935.17183518836
100113.44210853687
99815.39740707444
100250.58661273586
99833.60881583164
99332.81540638945
104414.67822423718
82820.50782563399
348105.6892239269
777177.5112310027
952765.9486173376
966996.6354205508
969311.0181226027
970543.1543006306
970409.7501041164