# vtk DataFile Version 2.0
JuliaCFD
ASCII
DATASET UNSTRUCTURED_GRID

POINTS 32898 float
0.0 0.0 -0.05
0.0125 0.0 -0.05
0.025 0.0 -0.05
0.0375 0.0 -0.05
0.05 0.0 -0.05
0.0625 0.0 -0.05
0.075 0.0 -0.05
0.0875 0.0 -0.05
0.1 0.0 -0.05
0.1125 0.0 -0.05
0.125 0.0 -0.05
0.1375 0.0 -0.05
0.15 0.0 -0.05
0.1625 0.0 -0.05
0.175 0.0 -0.05
0.1875 0.0 -0.05
0.2 0.0 -0.05
0.2125 0.0 -0.05
0.225 0.0 -0.05
0.2375 0.0 -0.05
0.25 0.0 -0.05
0.2625 0.0 -0.05
0.275 0.0 -0.05
0.2875 0.0 -0.05
0.3 0.0 -0.05
0.3125 0.0 -0.05
0.325 0.0 -0.05
0.3375 0.0 -0.05
0.35 0.0 -0.05
0.3625 0.0 -0.05
0.375 0.0 -0.05
0.3875 0.0 -0.05
0.4 0.0 -0.05
0.4125 0.0 -0.05
0.425 0.0 -0.05
0.4375 0.0 -0.05
0.45 0.0 -0.05
0.4625 0.0 -0.05
0.475 0.0 -0.05
0.4875 0.0 -0.05
0.5 0.0 -0.05
0.5125 0.0 -0.05
0.525 0.0 -0.05
0.5375 0.0 -0.05
0.55 0.0 -0.05
0.5625 0.0 -0.05
0.575 0.0 -0.05
0.5875 0.0 -0.05
0.6 0.0 -0.05
0.0 0.0125 -0.05
0.0125 0.0125 -0.05
0.025 0.0125 -0.05
0.0375 0.0125 -0.05
0.05 0.0125 -0.05
0.0625 0.0125 -0.05
0.075 0.0125 -0.05
0.0875 0.0125 -0.05
0.1 0.0125 -0.05
0.1125 0.0125 -0.05
0.125 0.0125 -0.05
0.1375 0.0125 -0.05
0.15 0.0125 -0.05
0.1625 0.0125 -0.05
0.175 0.0125 -0.05
0.1875 0.0125 -0.05
0.2 0.0125 -0.05
0.2125 0.0125 -0.05
0.225 0.0125 -0.05
0.2375 0.0125 -0.05
0.25 0.0125 -0.05
0.2625 0.0125 -0.05
0.275 0.0125 -0.05
0.2875 0.0125 -0.05
0.3 0.0125 -0.05
0.3125 0.0125 -0.05
0.325 0.0125 -0.05
0.3375 0.0125 -0.05
0.35 0.0125 -0.05
0.3625 0.0125 -0.05
0.375 0.0125 -0.05
0.3875 0.0125 -0.05
0.4 0.0125 -0.05
0.4125 0.0125 -0.05
0.425 0.0125 -0.05
0.4375 0.0125 -0.05
0.45 0.0125 -0.05
0.4625 0.0125 -0.05
0.475 0.0125 -0.05
0.4875 0.0125 -0.05
0.5 0.0125 -0.05
0.5125 0.0125 -0.05
0.525 0.0125 -0.05
0.5375 0.0125 -0.05
0.55 0.0125 -0.05
0.5625 0.0125 -0.05
0.575 0.0125 -0.05
0.5875 0.0125 -0.05
0.6 0.0125 -0.05
0.0 0.025 -0.05
0.0125 0.025 -0.05
0.025 0.025 -0.05
0.0375 0.025 -0.05
0.05 0.025 -0.05
0.0625 0.025 -0.05
0.075 0.025 -0.05
0.0875 0.025 -0.05
0.1 0.025 -0.05
0.1125 0.025 -0.05
0.125 0.025 -0.05
0.1375 0.025 -0.05
0.15 0.025 -0.05
0.1625 0.025 -0.05
0.175 0.025 -0.05
0.1875 0.025 -0.05
0.2 0.025 -0.05
0.2125 0.025 -0.05
0.225 0.025 -0.05
0.2375 0.025 -0.05
0.25 0.025 -0.05
0.2625 0.025 -0.05
0.275 0.025 -0.05
0.2875 0.025 -0.05
0.3 0.025 -0.05
0.3125 0.025 -0.05
0.325 0.025 -0.05
0.3375 0.025 -0.05
0.35 0.025 -0.05
0.3625 0.025 -0.05
0.375 0.025 -0.05
0.3875 0.025 -0.05
0.4 0.025 -0.05
0.4125 0.025 -0.05
0.425 0.025 -0.05
0.4375 0.025 -0.05
0.45 0.025 -0.05
0.4625 0.025 -0.05
0.475 0.025 -0.05
0.4875 0.025 -0.05
0.5 0.025 -0.05
0.5125 0.025 -0.05
0.525 0.025 -0.05
0.5375 0.025 -0.05
0.55 0.025 -0.05
0.5625 0.025 -0.05
0.575 0.025 -0.05
0.5875 0.025 -0.05
0.6 0.025 -0.05
0.0 0.0375 -0.05
0.0125 0.0375 -0.05
0.025 0.0375 -0.05
0.0375 0.0375 -0.05
0.05 0.0375 -0.05
0.0625 0.0375 -0.05
0.075 0.0375 -0.05
0.0875 0.0375 -0.05
0.1 0.0375 -0.05
0.1125 0.0375 -0.05
0.125 0.0375 -0.05
0.1375 0.0375 -0.05
0.15 0.0375 -0.05
0.1625 0.0375 -0.05
0.175 0.0375 -0.05
0.1875 0.0375 -0.05
0.2 0.0375 -0.05
0.2125 0.0375 -0.05
0.225 0.0375 -0.05
0.2375 0.0375 -0.05
0.25 0.0375 -0.05
0.2625 0.0375 -0.05
0.275 0.0375 -0.05
0.2875 0.0375 -0.05
0.3 0.0375 -0.05
0.3125 0.0375 -0.05
0.325 0.0375 -0.05
0.3375 0.0375 -0.05
0.35 0.0375 -0.05
0.3625 0.0375 -0.05
0.375 0.0375 -0.05
0.3875 0.0375 -0.05
0.4 0.0375 -0.05
0.4125 0.0375 -0.05
0.425 0.0375 -0.05
0.4375 0.0375 -0.05
0.45 0.0375 -0.05
0.4625 0.0375 -0.05
0.475 0.0375 -0.05
0.4875 0.0375 -0.05
0.5 0.0375 -0.05
0.5125 0.0375 -0.05
0.525 0.0375 -0.05
0.5375 0.0375 -0.05
0.55 0.0375 -0.05
0.5625 0.0375 -0.05
0.575 0.0375 -0.05
0.5875 0.0375 -0.05
0.6 0.0375 -0.05
0.0 0.05 -0.05
0.0125 0.05 -0.05
0.025 0.05 -0.05
0.0375 0.05 -0.05
0.05 0.05 -0.05
0.0625 0.05 -0.05
0.075 0.05 -0.05
0.0875 0.05 -0.05
0.1 0.05 -0.05
0.1125 0.05 -0.05
0.125 0.05 -0.05
0.1375 0.05 -0.05
0.15 0.05 -0.05
0.1625 0.05 -0.05
0.175 0.05 -0.05
0.1875 0.05 -0.05
0.2 0.05 -0.05
0.2125 0.05 -0.05
0.225 0.05 -0.05
0.2375 0.05 -0.05
0.25 0.05 -0.05
0.2625 0.05 -0.05
0.275 0.05 -0.05
0.2875 0.05 -0.05
0.3 0.05 -0.05
0.3125 0.05 -0.05
0.325 0.05 -0.05
0.3375 0.05 -0.05
0.35 0.05 -0.05
0.3625 0.05 -0.05
0.375 0.05 -0.05
0.3875 0.05 -0.05
0.4 0.05 -0.05
0.4125 0.05 -0.05
0.425 0.05 -0.05
0.4375 0.05 -0.05
0.45 0.05 -0.05
0.4625 0.05 -0.05
0.475 0.05 -0.05
0.4875 0.05 -0.05
0.5 0.05 -0.05
0.5125 0.05 -0.05
0.525 0.05 -0.05
0.5375 0.05 -0.05
0.55 0.05 -0.05
0.5625 0.05 -0.05
0.575 0.05 -0.05
0.5875 0.05 -0.05
0.6 0.05 -0.05
0.0 0.0625 -0.05
0.0125 0.0625 -0.05
0.025 0.0625 -0.05
0.0375 0.0625 -0.05
0.05 0.0625 -0.05
0.0625 0.0625 -0.05
0.075 0.0625 -0.05
0.0875 0.0625 -0.05
0.1 0.0625 -0.05
0.1125 0.0625 -0.05
0.125 0.0625 -0.05
0.1375 0.0625 -0.05
0.15 0.0625 -0.05
0.1625 0.0625 -0.05
0.175 0.0625 -0.05
0.1875 0.0625 -0.05
0.2 0.0625 -0.05
0.2125 0.0625 -0.05
0.225 0.0625 -0.05
0.2375 0.0625 -0.05
0.25 0.0625 -0.05
0.2625 0.0625 -0.05
0.275 0.0625 -0.05
0.2875 0.0625 -0.05
0.3 0.0625 -0.05
0.3125 0.0625 -0.05
0.325 0.0625 -0.05
0.3375 0.0625 -0.05
0.35 0.0625 -0.05
0.3625 0.0625 -0.05
0.375 0.0625 -0.05
0.3875 0.0625 -0.05
0.4 0.0625 -0.05
0.4125 0.0625 -0.05
0.425 0.0625 -0.05
0.4375 0.0625 -0.05
0.45 0.0625 -0.05
0.4625 0.0625 -0.05
0.475 0.0625 -0.05
0.4875 0.0625 -0.05
0.5 0.0625 -0.05
0.5125 0.0625 -0.05
0.525 0.0625 -0.05
0.5375 0.0625 -0.05
0.55 0.0625 -0.05
0.5625 0.0625 -0.05
0.575 0.0625 -0.05
0.5875 0.0625 -0.05
0.6 0.0625 -0.05
0.0 0.075 -0.05
0.0125 0.075 -0.05
0.025 0.075 -0.05
0.0375 0.075 -0.05
0.05 0.075 -0.05
0.0625 0.075 -0.05
0.075 0.075 -0.05
0.0875 0.075 -0.05
0.1 0.075 -0.05
0.1125 0.075 -0.05
0.125 0.075 -0.05
0.1375 0.075 -0.05
0.15 0.075 -0.05
0.1625 0.075 -0.05
0.175 0.075 -0.05
0.1875 0.075 -0.05
0.2 0.075 -0.05
0.2125 0.075 -0.05
0.225 0.075 -0.05
0.2375 0.075 -0.05
0.25 0.075 -0.05
0.2625 0.075 -0.05
0.275 0.075 -0.05
0.2875 0.075 -0.05
0.3 0.075 -0.05
0.3125 0.075 -0.05
0.325 0.075 -0.05
0.3375 0.075 -0.05
0.35 0.075 -0.05
0.3625 0.075 -0.05
0.375 0.075 -0.05
0.3875 0.075 -0.05
0.4 0.075 -0.05
0.4125 0.075 -0.05
0.425 0.075 -0.05
0.4375 0.075 -0.05
0.45 0.075 -0.05
0.4625 0.075 -0.05
0.475 0.075 -0.05
0.4875 0.075 -0.05
0.5 0.075 -0.05
0.5125 0.075 -0.05
0.525 0.075 -0.05
0.5375 0.075 -0.05
0.55 0.075 -0.05
0.5625 0.075 -0.05
0.575 0.075 -0.05
0.5875 0.075 -0.05
0.6 0.075 -0.05
0.0 0.0875 -0.05
0.0125 0.0875 -0.05
0.025 0.0875 -0.05
0.0375 0.0875 -0.05
0.05 0.0875 -0.05
0.0625 0.0875 -0.05
0.075 0.0875 -0.05
0.0875 0.0875 -0.05
0.1 0.0875 -0.05
0.1125 0.0875 -0.05
0.125 0.0875 -0.05
0.1375 0.0875 -0.05
0.15 0.0875 -0.05
0.1625 0.0875 -0.05
0.175 0.0875 -0.05
0.1875 0.0875 -0.05
0.2 0.0875 -0.05
0.2125 0.0875 -0.05
0.225 0.0875 -0.05
0.2375 0.0875 -0.05
0.25 0.0875 -0.05
0.2625 0.0875 -0.05
0.275 0.0875 -0.05
0.2875 0.0875 -0.05
0.3 0.0875 -0.05
0.3125 0.0875 -0.05
0.325 0.0875 -0.05
0.3375 0.0875 -0.05
0.35 0.0875 -0.05
0.3625 0.0875 -0.05
0.375 0.0875 -0.05
0.3875 0.0875 -0.05
0.4 0.0875 -0.05
0.4125 0.0875 -0.05
0.425 0.0875 -0.05
0.4375 0.0875 -0.05
0.45 0.0875 -0.05
0.4625 0.0875 -0.05
0.475 0.0875 -0.05
0.4875 0.0875 -0.05
0.5 0.0875 -0.05
0.5125 0.0875 -0.05
0.525 0.0875 -0.05
0.5375 0.0875 -0.05
0.55 0.0875 -0.05
0.5625 0.0875 -0.05
0.575 0.0875 -0.05
0.5875 0.0875 -0.05
0.6 0.0875 -0.05
0.0 0.1 -0.05
0.0125 0.1 -0.05
0.025 0.1 -0.05
0.0375 0.1 -0.05
0.05 0.1 -0.05
0.0625 0.1 -0.05
0.075 0.1 -0.05
0.0875 0.1 -0.05
0.1 0.1 -0.05
0.1125 0.1 -0.05
0.125 0.1 -0.05
0.1375 0.1 -0.05
0.15 0.1 -0.05
0.1625 0.1 -0.05
0.175 0.1 -0.05
0.1875 0.1 -0.05
0.2 0.1 -0.05
0.2125 0.1 -0.05
0.225 0.1 -0.05
0.2375 0.1 -0.05
0.25 0.1 -0.05
0.2625 0.1 -0.05
0.275 0.1 -0.05
0.2875 0.1 -0.05
0.3 0.1 -0.05
0.3125 0.1 -0.05
0.325 0.1 -0.05
0.3375 0.1 -0.05
0.35 0.1 -0.05
0.3625 0.1 -0.05
0.375 0.1 -0.05
0.3875 0.1 -0.05
0.4 0.1 -0.05
0.4125 0.1 -0.05
0.425 0.1 -0.05
0.4375 0.1 -0.05
0.45 0.1 -0.05
0.4625 0.1 -0.05
0.475 0.1 -0.05
0.4875 0.1 -0.05
0.5 0.1 -0.05
0.5125 0.1 -0.05
0.525 0.1 -0.05
0.5375 0.1 -0.05
0.55 0.1 -0.05
0.5625 0.1 -0.05
0.575 0.1 -0.05
0.5875 0.1 -0.05
0.6 0.1 -0.05
0.0 0.1125 -0.05
0.0125 0.1125 -0.05
0.025 0.1125 -0.05
0.0375 0.1125 -0.05
0.05 0.1125 -0.05
0.0625 0.1125 -0.05
0.075 0.1125 -0.05
0.0875 0.1125 -0.05
0.1 0.1125 -0.05
0.1125 0.1125 -0.05
0.125 0.1125 -0.05
0.1375 0.1125 -0.05
0.15 0.1125 -0.05
0.1625 0.1125 -0.05
0.175 0.1125 -0.05
0.1875 0.1125 -0.05
0.2 0.1125 -0.05
0.2125 0.1125 -0.05
0.225 0.1125 -0.05
0.2375 0.1125 -0.05
0.25 0.1125 -0.05
0.2625 0.1125 -0.05
0.275 0.1125 -0.05
0.2875 0.1125 -0.05
0.3 0.1125 -0.05
0.3125 0.1125 -0.05
0.325 0.1125 -0.05
0.3375 0.1125 -0.05
0.35 0.1125 -0.05
0.3625 0.1125 -0.05
0.375 0.1125 -0.05
0.3875 0.1125 -0.05
0.4 0.1125 -0.05
0.4125 0.1125 -0.05
0.425 0.1125 -0.05
0.4375 0.1125 -0.05
0.45 0.1125 -0.05
0.4625 0.1125 -0.05
0.475 0.1125 -0.05
0.4875 0.1125 -0.05
0.5 0.1125 -0.05
0.5125 0.1125 -0.05
0.525 0.1125 -0.05
0.5375 0.1125 -0.05
0.55 0.1125 -0.05
0.5625 0.1125 -0.05
0.575 0.1125 -0.05
0.5875 0.1125 -0.05
0.6 0.1125 -0.05
0.0 0.125 -0.05
0.0125 0.125 -0.05
0.025 0.125 -0.05
0.0375 0.125 -0.05
0.05 0.125 -0.05
0.0625 0.125 -0.05
0.075 0.125 -0.05
0.0875 0.125 -0.05
0.1 0.125 -0.05
0.1125 0.125 -0.05
0.125 0.125 -0.05
0.1375 0.125 -0.05
0.15 0.125 -0.05
0.1625 0.125 -0.05
0.175 0.125 -0.05
0.1875 0.125 -0.05
0.2 0.125 -0.05
0.2125 0.125 -0.05
0.225 0.125 -0.05
0.2375 0.125 -0.05
0.25 0.125 -0.05
0.2625 0.125 -0.05
0.275 0.125 -0.05
0.2875 0.125 -0.05
0.3 0.125 -0.05
0.3125 0.125 -0.05
0.325 0.125 -0.05
0.3375 0.125 -0.05
0.35 0.125 -0.05
0.3625 0.125 -0.05
0.375 0.125 -0.05
0.3875 0.125 -0.05
0.4 0.125 -0.05
0.4125 0.125 -0.05
0.425 0.125 -0.05
0.4375 0.125 -0.05
0.45 0.125 -0.05
0.4625 0.125 -0.05
0.475 0.125 -0.05
0.4875 0.125 -0.05
0.5 0.125 -0.05
0.5125 0.125 -0.05
0.525 0.125 -0.05
0.5375 0.125 -0.05
0.55 0.125 -0.05
0.5625 0.125 -0.05
0.575 0.125 -0.05
0.5875 0.125 -0.05
0.6 0.125 -0.05
0.0 0.1375 -0.05
0.0125 0.1375 -0.05
0.025 0.1375 -0.05
0.0375 0.1375 -0.05
0.05 0.1375 -0.05
0.0625 0.1375 -0.05
0.075 0.1375 -0.05
0.0875 0.1375 -0.05
[...]
CELL_DATA 16128
SCALARS P float 1
LOOKUP_TABLE default
99999.9815907255
100000.03034463336
99999.95061078627
100000.08113032405
99999.86764139796
100000.21690225412
99999.64580201694
100000.57939501865
99999.05419555122
100001.54386501307
99997.48516538243
100004.08831687177
99993.38052694638
100010.65075275884
99983.0503747749
100026.44833698975
99960.22744958641
100055.360709431
99936.58843469869
100026.9259533073
100175.24348733881
99089.52519589364
103340.94646739523
89444.37786360133
136714.75060751813
529347.2440752776
960934.1710938433
1.0593759645459855e6
1.0573353033789513e6
1.0723704787661312e6
1.0829073871111837e6
1.0940577464364073e6
1.1044718198776057e6
1.1145222128709364e6
1.1240806235502062e6
1.1332013749535386e6
1.141818323204419e6
1.1499929546276235e6
1.1575691707535493e6
1.1647407789921644e6
1.1710777782646145e6
1.1772170947367e6
1.181922074212457e6
1.187217560320221e6
1.189418936173343e6
1.1948420246383331e6
1.1922806027780068e6
1.2012659057166686e6
99999.98181358867
100000.0299066507
99999.95135760632
100000.07972847027
99999.87012415733
100000.21233741032
99999.6539934227
100000.56454028423
99999.08077307716
100001.49646632372
99997.56852933926
100003.9437342401
99993.62568365793
100010.24760545853
99983.68233897793
100025.53305771403
99961.35541129754
100054.5191456177
99935.37898217324
100035.21408237312
100146.18997168887
99172.25210556501
103113.87345564902
89971.59256182604
135020.89955882562
526090.4216976677
961581.8811428715
1.0638066804235736e6
1.062250922562711e6
1.0777728732312205e6
1.0885160598517733e6
1.0997993590586083e6
1.110308220546202e6
1.1204450279945263e6
1.1300927914012005e6
1.139309898794416e6
1.1480303639204395e6
1.1563140324417672e6
1.164001446119117e6
1.1712833045623745e6
1.1777236924216403e6
1.1839573035255692e6
1.1887364244950505e6
1.1940923316699422e6
1.1963104765816445e6
1.2017587260489946e6
1.199106283267345e6
1.2081903008835395e6
99999.98237404886
100000.02902043107
99999.9527816911
100000.07746801093
99999.87367235713
100000.20680337196
99999.66244691331
100000.55182442638
99999.09926856405
100001.47063054719
99997.60196086767
100003.90625371563
99993.6527832719
100010.27137647175
99983.50407718042
100026.11602189702
99959.7600793849
100058.5890733825
99925.13948272205
100060.88191113701
100079.82870044251
99343.85373887359
102633.65328418878
91216.3249657523
130314.96641723537
514167.99177737534
952746.5864237025
1.060627179961497e6
1.0583891645199307e6
1.073643618022718e6
1.0841644945407228e6
1.0952563104891682e6
1.1055941681738547e6
1.1155618776376555e6
1.1250393676121328e6
1.134081514972705e6
1.142623790642952e6
1.1507266649975246e6
1.1582354772924029e6
1.1653413208314541e6
1.171617593360304e6
1.1776951338526206e6
1.1823437629558295e6
1.1875817209012904e6
1.189718649665985e6
1.1951173058734788e6
1.1923881909951442e6
1.2016292335168608e6
99999.98318462522
100000.02772739531
99999.95486207891
100000.0741363398
99999.87894656674
100000.19845907805
99999.67544505416
100000.53170587204
99999.12981233903
100001.4250665464
99997.66777516014
100003.81540563298
99993.76773748534
100010.15164700762
99983.55419041238
100026.35702810768
99958.59894874958
100062.37291409422
99913.97892581389
100092.26553409794
99991.22311957156
99588.75958740053
101922.47234194077
93129.73575097152
123535.42617113907
497160.4761514976
942467.8526352091
1.060419186574843e6
1.0579420389009777e6
1.0733574767721533e6
1.0839576417347156e6
1.0950765641813695e6
1.1054240964967043e6
1.1153860243153952e6
1.124855121800675e6
1.1338900821709628e6
1.142431499602418e6
1.1505411276379824e6
1.1580678233052092e6
1.1652005076473977e6
1.1715170617369723e6
1.1776402383577856e6
1.1823463769127235e6
1.1876402004466986e6
1.1898260077273254e6
1.1952946720227299e6
1.1925033125250856e6
1.2019964143256673e6
99999.9842423255
100000.02600730413
99999.95764175335
100000.06961520898
99999.88620842417
100000.18673833291
99999.69415990596
100000.50182822741
99999.17704078952
100001.35085122802
99997.78284668634
100003.63987597803
99994.02765461404
100009.7862127964
99984.01228881824
100025.94653133747
99958.39713164946
100064.99111699415
99903.38373307687
100126.78342929242
99885.41583339924
99896.89341816156
101009.89391629428
95679.75891942697
115045.28079135873
473967.8703736821
926880.2809987393
1.0582869722260158e6
1.0553195045656327e6
1.0704840431780175e6
1.0809102520351699e6
1.0918215596169461e6
1.1019793579703548e6
1.1117458950166279e6
1.121020532146414e6
1.1298587386534542e6
1.1382037791092591e6
1.1461169779259432e6
1.1534518172560008e6
1.1603950794866588e6
1.1665338186386686e6
1.1724827306801507e6
1.1770354092436426e6
1.1821820375696549e6
1.1842405069905336e6
1.1896345879984254e6
1.1866658522072106e6
1.196420039223086e6
99999.985525901
100000.0238759708
99999.96110134831
100000.06390187898
99999.8955104193
100000.17146012202
99999.71905749002
100000.46113146152
99999.24322271897
100001.24335191617
99997.95637586879
100003.36180751187
99994.46673814286
100009.11009540908
99985.00209748014
100024.64672930758
99959.62369726758
100065.4892353616
99895.40135870382
100159.87796772052
99773.2885795142
100242.70781718774
99966.40740049796
98724.37682975833
105607.31512294912
445365.42836484563
906730.2686424786
1.0559570759987442e6
1.0530648617962294e6
1.0680067745591751e6
1.078393997741898e6
1.0891776097185211e6
1.0992188439810597e6
1.108851729557216e6
1.117990600749299e6
1.1266909945239832e6
1.134902414258756e6
1.1426880205491853e6
1.149908107593287e6
1.1567485228072216e6
1.162806696119614e6
1.1686890512570974e6
1.17320409484564e6
1.178326368001116e6
1.1803707027834249e6
1.1858089925249747e6
1.1827129803459414e6
1.1928427118901885e6
99999.98698774524
100000.02140772999
99999.96512112865
100000.05718733248
99999.90655228408
100000.1530989024
99999.74940407777
100000.4107460884
99999.32666397149
100001.10503769679
99998.18498992901
100002.98526001937
99995.08173519131
100008.12063430932
99986.54755666749
100022.37048541228
99962.54353245317
100063.12985136203
99892.0372416181
100186.28468257461
99668.86047847995
100590.27780838721
98890.6853303376
102030.3312341213
96020.64714935076
411610.77734251786
880826.5079769186
1.05220811701702e6
1.0501433144157198e6
1.0645461135722208e6
1.074818041505214e6
1.085353451073541e6
1.095173377963669e6
1.104565842236414e6
1.11346073984806e6
1.1219099738945677e6
1.1298673284185473e6
1.1373954790757473e6
1.144359822833091e6
1.150942972954091e6
1.156751611907222e6
1.1623825275537947e6
1.1666608089550687e6
1.1715514372149042e6
1.1733712553044965e6
1.17867820256582e6
1.1752757397658082e6
1.185799700506171e6
99999.98855492169
100000.01873562223
99999.96948088716
100000.04985926303
99999.9186733567
100000.13280398605
99999.78322068082
100000.35409639477
99999.42147209692
100000.94601441703
99998.45151557135
100002.53903488204
99995.82542426718
100006.89243394068
99988.53875942329
100019.25772337493
99967.04884295464
100057.75205391103
99894.51340213482
100201.44533951441
99586.821136896
100896.11648295469
97908.19373133482
105233.74710101738
87244.6089552414
373418.51870793576
848636.5347550731
1.0468335940783048e6
1.0471067232403508e6
1.0606986491525052e6
1.0709136619222509e6
1.0811902489249224e6
1.0907861203792e6
1.0999283809750678e6
1.1085670805252474e6
1.1167512100069716e6
1.124441008174479e6
1.1317012051469295e6
1.1384060062143374e6
1.1447394722797123e6
1.1503236439549944e6
1.1557519973352887e6
1.1598714313056152e6
1.1646402793135983e6
1.1663661373940099e6
1.1716946270571244e6
1.1680782811014575e6
1.1791567422649132e6
99999.99014034458
100000.01602886598
99999.97389764716
100000.04243267277
99999.9309728433
100000.11218734951
99999.81764741411
100000.29628148997
99999.51857796164
100000.78239515617
99998.72743253708
100002.07331921787
99996.61032141143
100005.57569071373
99990.72427151872
100015.71129282264
99972.54851461636
100050.06011201795
99902.56441234163
100203.09045891292
99539.0140473596
101116.31116070505
97155.14356522427
107865.42075612755
80294.2812458203
331678.79410105
809341.9580341859
1.0389279921293282e6
1.0438525807566746e6
1.0562001909124847e6
1.066361429166485e6
1.0763042860300757e6
1.0856101438726569e6
1.0944287523619733e6
1.102731608505491e6
1.1105620880970394e6
1.1178839538368362e6
1.1247599568676355e6
1.1310673086581377e6
1.13698447440792e6
1.1421385983271701e6
1.1471119320489953e6
1.1507601789551186e6
1.1550449053712247e6
1.156253706983297e6
1.161215809565082e6
1.1569563346760299e6
1.1685728440839131e6
99999.99166104224
100000.01345362912
99999.97809187134
100000.03542400272
99999.94253417096
100000.09291412609
99999.84967796029
100000.24275979819
99999.60807159593
100000.6321873689
99998.98004560484
100001.6473403822
99997.32961370263
100004.36144984991
99992.76707257613
100012.31113039616
99978.08773425192
100041.48865686235
99914.47222158441
100191.67188491194
99532.30549317392
101213.68496914863
96759.59301573236
109403.93576522064
76139.54065660811
287627.84177207283
762316.7281504121
1.027504902369812e6
1.0405317718338063e6
1.05116785704912e6
1.0613100351927823e6
1.0708760276006681e6
1.0798538479784385e6
1.0883041719940389e6
1.0962215855922105e6
1.103644466062783e6
1.1105417798372605e6
1.116977853057611e6
1.1228392329739402e6
1.1283088682861212e6
1.133034638896114e6
1.1376058295752741e6
1.1409120730291647e6
1.1449271179331588e6
1.145932189850862e6
1.1508855271693834e6
1.1463157885772912e6
1.1587648174081112e6
99999.99305731391
100000.01112991959
99999.98186115621
100000.02920781693
99999.95268672667
100000.07621253424
99999.87706524816
100000.19767215147
99999.68229464097
100000.50960407058
99999.18291035925
100001.310340582
99997.8916617687
100003.41956441988
99994.35460673939
100009.62326926719
99982.66654856851
100033.71062002699
99927.69235770847
100170.04211160034
99566.65536286873
101170.0677765766
96796.44781749103
109505.22873016205
75464.64375972688
242783.38605625008
707119.791559399
1.0112123634062175e6
1.0371241742335998e6
1.045585631587465e6
1.0557106548224643e6
1.0648439049761978e6
1.0734341048987014e6
1.0814482101871786e6
1.088900878076263e6
1.0958224114511488e6
1.1021810247850232e6
1.10803428419292e6
1.1132639424211571e6
1.1180387545360245e6
1.121995415588456e6
1.1256996719194779e6
1.1280167011941383e6
1.130932634477161e6
1.1306413836551663e6
1.1344817635816396e6
1.128270756372427e6
1.1413172720397376e6
99999.99430543564
100000.0091008958
99999.98513385937
100000.02390928811
99999.96120926272
100000.06248081906
99999.89907530513
100000.16239511514
99999.73861441245
100000.41975784549
99999.32596575185
100001.08231250575
99998.25645848006
100002.83031016828
99995.32561993839
100007.96946552757
99985.64625488015
100027.96201048687
99939.86737103245
100142.34996683022
99635.07502824385
100993.65835373629
97260.8012524254
108159.62896801232
78446.83006671765
198948.27181388444
643712.9345696247
988433.5104977234
1.0335138449017159e6
1.0395320749905503e6
1.049600966956923e6
1.0582603811550315e6
1.066407948172695e6
1.073926216277685e6
1.0808455560329095e6
1.087189294751583e6
1.0929261587131096e6
1.0981116942040522e6
1.102633556808749e6
1.1066648835697172e6
1.109867678463572e6
1.1128271900548197e6
1.1144716636061005e6
1.116823133760337e6
1.1161380662887048e6
1.1198422100336952e6
1.113286365851097e6
1.127445276806551e6
99999.99541811437
100000.0073286518
99999.98797809082
100000.01938182533
99999.96838161217
100000.05117127739
99999.91674407123
100000.13498397145
99999.78061863077
100000.3561301614
99999.42083591066
100000.9430100995
99998.45814106334
100002.53887504205
99995.76077060259
100007.2508286677
99987.08410521522
100024.43911733355
99949.85093011142
100112.6034333294
99725.03891720089
100721.48380787832
98047.98928733497
105691.51525671949
84617.66588476325
158244.82263037408
572645.7969333619
957279.75692513
1.029306236858208e6
1.033101417395874e6
1.0429850892829116e6
1.0511375291169314e6
1.0587788456200198e6
1.0657325898852805e6
1.0720339037079867e6
1.0776949239075587e6
1.0826745782241363e6
1.0870111316488297e6
1.0905700562736893e6
1.0934873623705015e6
1.0953712716874136e6
1.0967333140415628e6
1.0963669776716847e6
1.0962498328926975e6
1.0922822224809632e6
1.0926152218935497e6
1.081050843170709e6
1.0951165517000826e6
99999.99643119946
100000.00572174303
99999.99055594295
100000.01529254956
99999.97483680955
100000.04105258526
99999.9324262448
100000.11094195335
99999.81683876108
100000.30262596485
99999.49768495305
100000.83638416734
99998.59970514853
100002.35902622638
99995.98866830002
100006.91030036895
99987.85772440357
100021.96190543618
99958.55262881645
100082.74563159201
99822.78017949798
100409.52821078103
98988.19623811502
102709.9009574771
92730.76773208272
123142.44146306203
495288.0987252352
915678.676707474
1.0236681179446357e6
1.0264324701164414e6
1.0358791401792763e6
1.0435109184415664e6
1.0505854114462235e6
1.0569129412512712e6
1.0625220371283737e6
1.0674144904567965e6
1.0715397663098932e6
1.074923322114263e6
1.0774234881782855e6
1.0791666253981239e6
1.0797798298451935e6
1.0797882980897783e6
1.078108235081165e6
1.0767183530119283e6
1.071954585243954e6
1.0713928049574855e6
1.0598273677740677e6
1.073134267877957e6
99999.99738093623
100000.00418649711
99999.99303534793
100000.01129431798
99999.98124562691
100000.03080249947
99999.94869645567
100000.08525872613
99999.85698804945
100000.24048056819
99999.59262108042
100000.69333420496
99998.81242651028
100002.04412530088
99996.46500955508
100006.1290954069
99989.37080359741
100018.34132988611
99968.71210643392
100051.87616449152
99917.9568717339
100113.81843765095
99882.3964101901
99939.06810531935
100837.4661139967
96350.3088614299
414077.0269660222
861569.5080081836
1.0150995855169386e6
1.0196648343055752e6
1.0282914783345932e6
1.0354095578180149e6
1.041860001682509e6
1.0475004001162826e6
1.0523382850068859e6
1.0563603714437797e6
1.0594939559540285e6
1.0617309760514707e6
1.0628808803913859e6
1.0629908771946179e6
1.0615566855356034e6
1.0588964990769296e6
1.0535309713232443e6
1.0470101701011899e6
1.0343356952361484e6
1.023719139449248e6
994345.8570805785
1.0008597139044804e6
99999.99828100085
100000.00268146786
99999.99549453922
100000.00721669185
99999.98795537562
100000.01970601738
99999.96701039968
100000.05498266856
99999.90702622375
100000.15771305392
99999.7296291543
100000.46610336956
99999.19074224586
100001.40931532266
99997.54632629578
100004.23618697551
99992.8383860947
100011.53856937142
99983.2682144379
100017.60884780574
100005.41451575555
99875.51147215613
100557.51465694334
97986.47533244701
106755.27944155455
80172.12731142402
332591.5228508919
793398.8054664527
1.0013125331017611e6
1.0128956309881224e6
1.0202472894465807e6
1.0268746512295298e6
1.0326556229121072e6
1.0375584946561849e6
1.0415613508779577e6
1.0446357114381457e6
1.046686057574446e6
1.0476720402922626e6
1.0473681109634471e6
1.0457669858873488e6
1.0423384734984477e6
1.0373236431416095e6
1.0293900847115943e6
1.0198936606235175e6
1.0051268681510559e6
990264.9312117005
962121.7919370607
929035.6000157171
99999.9991099645
100000.0012493364
99999.99786410695
100000.00318554223
99999.99475400106
100000.00812821009
99999.98675996844
100000.02111138348
99999.96537432785
100000.05670242135
99999.9054136702
100000.15855081189
99999.73196680428
100000.45096307965
99999.25518898963
100001.16385182868
99998.4193748281
100001.26044858673
100002.5640839384
99980.41675664987
100079.96082990736
99719.34880656446
100909.39695725306
97172.5662277971
108934.28164752199
75314.53931147764
255164.10572881193
710838.7607122025
979341.7009146098
1.0061091197256526e6
1.0118244555623699e6
1.0179656286176211e6
1.0230404781333908e6
1.0271609238186135e6
1.0302718100986403e6
1.03232583153667e6
1.0331958635113823e6
1.0327942640178351e6
1.0308262283552898e6
1.0271655020099621e6
1.0210981152544353e6
1.0124728456178417e6
999299.031663067
981332.264528183
951844.0267044994
908967.535783674
823435.7616935653
671983.4199632877
99999.99981616509
100000.00000776774
99999.99994035544
99999.99960087826
100000.00089972274
99999.99747787723
100000.00529511317
99999.98864372495
100000.02261685219
99999.95516567475
100000.08668136345
99999.83309337327
100000.31944253058
99999.38610742376
100001.19044859435
99997.64659154804
100004.78754581774
99989.85199624077
100022.58077379323
99946.80533183119
100131.87021431017
99656.06787184162
100930.25345959284
97435.48651069593
107496.26871611169
79987.0595292161
186254.1333800749
615194.722474049
945724.7070648905
998967.5077788086
1.0031791009638159e6
1.0087636215206208e6
1.0131022536865963e6
1.0164032426101613e6
1.018582195367326e6
1.0195699269056008e6
1.019207775932974e6
1.0173576190932137e6
1.0136645017330217e6
1.0078927178413646e6
999190.72450523
987142.3036480115
969463.4723488215
945228.4557277815
907480.0898768663
852845.4478272507
757660.9792514767
601931.0617856081
100000.0003391558
99999.99909947746
100000.00147130042
99999.99696698788
100000.0054361901
99999.98960810961
100000.01905148226
99999.96445502697
100000.06549361111
99999.87868052747
100000.22409551598
99999.58480669007
100000.77027144439
99998.5653572657
100002.68403239257
99994.94439939513
100009.60645621929
99981.51888319541
100036.1274304425
99927.78094989301
100148.31477960941
99684.30379783119
100699.44299606023
98386.88325999488
103992.67578361058
90292.1330738578
130576.93501494276
509639.6556520569
896514.8487566778
990280.892550069
994485.0435605865
999338.2041885854
1.0029244029317565e6
1.0053824975168837e6
1.0066095863770118e6
1.0065132551082255e6
1.0049025323828505e6
1.0015990253232787e6
996191.5434690574
988363.0971337191
977166.140557718
962036.7548478263
940584.3665592113
911752.0112096475
868969.4987603645
810009.7275828937
715866.8120345412
583100.0931119696
100000.00063834511
99999.99862347182
100000.00227775749
99999.9956489127
100000.00765658845
99999.98591153127
100000.02530334232
99999.95388886708
100000.08352995527
99999.84777818962
100000.27741060381
99999.4925076239
100000.93036879836
99998.2887895898
100003.15546640512
99994.16671777233
100010.79835916452
99980.01162385748
100036.87883325055
99932.48547567097
100121.42267830431
99788.55132117926
100342.66326695368
99524.39867168224
100357.23699677653
101050.73625055786
93052.26563194138
399880.8484378165
827754.6914790373
977339.1902047374
985803.4078714143
989722.3116538147
992572.0796459813
994189.3284351476
994471.7096016384
993305.6897947696
990475.6558139885
985773.0766767367
978750.1665297262
969044.9366684188
955667.9844709157
938030.407233199
913774.6415982333
882089.4304581017
836951.8599259704
778077.6064605506
689623.2707894369
578970.6130583006
100000.00071511617
99999.9985815909
100000.00234913296
99999.9956782088
100000.00747980349
99999.98657707724
100000.02362749701
99999.95786234079
100000.0747739532
99999.86655202463
100000.23813356686
99999.57364367247
100000.76426335222
99998.62755587809
100002.46477512503
99995.5803685986
100007.88187375426
99986.10743283479
100023.90247810933
99960.79202677526
100057.78152580195
99936.64538270315
99984.04460854037
100425.128041757
98001.29398924756
107530.99634812555
76468.00186154679
294192.78871016676
737339.171961228
955829.6886554362
976993.8519446709
979953.8491192118
982108.8519692965
982913.6681859744
982283.438106617
980090.4574591015
976106.9464827491
970105.6904061455
961623.4539738711
950287.2743716461
935114.7947266144
915572.4472749485
889439.8021649304
856268.9089008707
810738.065670054
754027.4368595002
673332.859373975
579730.1334495734
100000.00061727886
99999.9988685361
100000.00186288726
99999.99671316853
100000.00553094341
99999.99042549716
100000.01624023361
99999.97217122118
100000.04723482384
99999.91966266526
100000.13577983622
99999.7711772334
100000.38262424376
99999.36612848224
100001.03318446936
99998.35933788955
100002.4825538386
99996.59672105638
100003.5650552849
100000.02737816231
99982.86918862237
100077.00957906598
99730.74628093986
100852.22521703667
97407.50842777628
107925.37413750574
78072.94416707141
201477.69837797934
626797.3656317387
920502.4497436141
967632.9185519003
970180.9382547638
971638.9646881287
971662.3033097642
970162.4704047024