# vtk DataFile Version 2.0
JuliaCFD
ASCII
DATASET UNSTRUCTURED_GRID

POINTS 32898 float
0.0 0.0 -0.05
0.0125 0.0 -0.05
0.025 0.0 -0.05
0.0375 0.0 -0.05
0.05 0.0 -0.05
0.0625 0.0 -0.05
0.075 0.0 -0.05
0.0875 0.0 -0.05
0.1 0.0 -0.05
0.1125 0.0 -0.05
0.125 0.0 -0.05
0.1375 0.0 -0.05
0.15 0.0 -0.05
0.1625 0.0 -0.05
0.175 0.0 -0.05
0.1875 0.0 -0.05
0.2 0.0 -0.05
0.2125 0.0 -0.05
0.225 0.0 -0.05
0.2375 0.0 -0.05
0.25 0.0 -0.05
0.2625 0.0 -0.05
0.275 0.0 -0.05
0.2875 0.0 -0.05
0.3 0.0 -0.05
0.3125 0.0 -0.05
0.325 0.0 -0.05
0.3375 0.0 -0.05
0.35 0.0 -0.05
0.3625 0.0 -0.05
0.375 0.0 -0.05
0.3875 0.0 -0.05
0.4 0.0 -0.05
0.4125 0.0 -0.05
0.425 0.0 -0.05
0.4375 0.0 -0.05
0.45 0.0 -0.05
0.4625 0.0 -0.05
0.475 0.0 -0.05
0.4875 0.0 -0.05
0.5 0.0 -0.05
0.5125 0.0 -0.05
0.525 0.0 -0.05
0.5375 0.0 -0.05
0.55 0.0 -0.05
0.5625 0.0 -0.05
0.575 0.0 -0.05
0.5875 0.0 -0.05
0.6 0.0 -0.05
0.0 0.0125 -0.05
0.0125 0.0125 -0.05
0.025 0.0125 -0.05
0.0375 0.0125 -0.05
0.05 0.0125 -0.05
0.0625 0.0125 -0.05
0.075 0.0125 -0.05
0.0875 0.0125 -0.05
0.1 0.0125 -0.05
0.1125 0.0125 -0.05
0.125 0.0125 -0.05
0.1375 0.0125 -0.05
0.15 0.0125 -0.05
0.1625 0.0125 -0.05
0.175 0.0125 -0.05
0.1875 0.0125 -0.05
0.2 0.0125 -0.05
0.2125 0.0125 -0.05
0.225 0.0125 -0.05
0.2375 0.0125 -0.05
0.25 0.0125 -0.05
0.2625 0.0125 -0.05
0.275 0.0125 -0.05
0.2875 0.0125 -0.05
0.3 0.0125 -0.05
0.3125 0.0125 -0.05
0.325 0.0125 -0.05
0.3375 0.0125 -0.05
0.35 0.0125 -0.05
0.3625 0.0125 -0.05
0.375 0.0125 -0.05
0.3875 0.0125 -0.05
0.4 0.0125 -0.05
0.4125 0.0125 -0.05
0.425 0.0125 -0.05
0.4375 0.0125 -0.05
0.45 0.0125 -0.05
0.4625 0.0125 -0.05
0.475 0.0125 -0.05
0.4875 0.0125 -0.05
0.5 0.0125 -0.05
0.5125 0.0125 -0.05
0.525 0.0125 -0.05
0.5375 0.0125 -0.05
0.55 0.0125 -0.05
0.5625 0.0125 -0.05
0.575 0.0125 -0.05
0.5875 0.0125 -0.05
0.6 0.0125 -0.05
0.0 0.025 -0.05
0.0125 0.025 -0.05
0.025 0.025 -0.05
0.0375 0.025 -0.05
0.05 0.025 -0.05
0.0625 0.025 -0.05
0.075 0.025 -0.05
0.0875 0.025 -0.05
0.1 0.025 -0.05
0.1125 0.025 -0.05
0.125 0.025 -0.05
0.1375 0.025 -0.05
0.15 0.025 -0.05
0.1625 0.025 -0.05
0.175 0.025 -0.05
0.1875 0.025 -0.05
0.2 0.025 -0.05
0.2125 0.025 -0.05
0.225 0.025 -0.05
0.2375 0.025 -0.05
0.25 0.025 -0.05
0.2625 0.025 -0.05
0.275 0.025 -0.05
0.2875 0.025 -0.05
0.3 0.025 -0.05
0.3125 0.025 -0.05
0.325 0.025 -0.05
0.3375 0.025 -0.05
0.35 0.025 -0.05
0.3625 0.025 -0.05
0.375 0.025 -0.05
0.3875 0.025 -0.05
0.4 0.025 -0.05
0.4125 0.025 -0.05
0.425 0.025 -0.05
0.4375 0.025 -0.05
0.45 0.025 -0.05
0.4625 0.025 -0.05
0.475 0.025 -0.05
0.4875 0.025 -0.05
0.5 0.025 -0.05
0.5125 0.025 -0.05
0.525 0.025 -0.05
0.5375 0.025 -0.05
0.55 0.025 -0.05
0.5625 0.025 -0.05
0.575 0.025 -0.05
0.5875 0.025 -0.05
0.6 0.025 -0.05
0.0 0.0375 -0.05
0.0125 0.0375 -0.05
0.025 0.0375 -0.05
0.0375 0.0375 -0.05
0.05 0.0375 -0.05
0.0625 0.0375 -0.05
0.075 0.0375 -0.05
0.0875 0.0375 -0.05
0.1 0.0375 -0.05
0.1125 0.0375 -0.05
0.125 0.0375 -0.05
0.1375 0.0375 -0.05
0.15 0.0375 -0.05
0.1625 0.0375 -0.05
0.175 0.0375 -0.05
0.1875 0.0375 -0.05
0.2 0.0375 -0.05
0.2125 0.0375 -0.05
0.225 0.0375 -0.05
0.2375 0.0375 -0.05
0.25 0.0375 -0.05
0.2625 0.0375 -0.05
0.275 0.0375 -0.05
0.2875 0.0375 -0.05
0.3 0.0375 -0.05
0.3125 0.0375 -0.05
0.325 0.0375 -0.05
0.3375 0.0375 -0.05
0.35 0.0375 -0.05
0.3625 0.0375 -0.05
0.375 0.0375 -0.05
0.3875 0.0375 -0.05
0.4 0.0375 -0.05
0.4125 0.0375 -0.05
0.425 0.0375 -0.05
0.4375 0.0375 -0.05
0.45 0.0375 -0.05
0.4625 0.0375 -0.05
0.475 0.0375 -0.05
0.4875 0.0375 -0.05
0.5 0.0375 -0.05
0.5125 0.0375 -0.05
0.525 0.0375 -0.05
0.5375 0.0375 -0.05
0.55 0.0375 -0.05
0.5625 0.0375 -0.05
0.575 0.0375 -0.05
0.5875 0.0375 -0.05
0.6 0.0375 -0.05
0.0 0.05 -0.05
0.0125 0.05 -0.05
0.025 0.05 -0.05
0.0375 0.05 -0.05
0.05 0.05 -0.05
0.0625 0.05 -0.05
0.075 0.05 -0.05
0.0875 0.05 -0.05
0.1 0.05 -0.05
0.1125 0.05 -0.05
0.125 0.05 -0.05
0.1375 0.05 -0.05
0.15 0.05 -0.05
0.1625 0.05 -0.05
0.175 0.05 -0.05
0.1875 0.05 -0.05
0.2 0.05 -0.05
0.2125 0.05 -0.05
0.225 0.05 -0.05
0.2375 0.05 -0.05
0.25 0.05 -0.05
0.2625 0.05 -0.05
0.275 0.05 -0.05
0.2875 0.05 -0.05
0.3 0.05 -0.05
0.3125 0.05 -0.05
0.325 0.05 -0.05
0.3375 0.05 -0.05
0.35 0.05 -0.05
0.3625 0.05 -0.05
0.375 0.05 -0.05
0.3875 0.05 -0.05
0.4 0.05 -0.05
0.4125 0.05 -0.05
0.425 0.05 -0.05
0.4375 0.05 -0.05
0.45 0.05 -0.05
0.4625 0.05 -0.05
0.475 0.05 -0.05
0.4875 0.05 -0.05
0.5 0.05 -0.05
0.5125 0.05 -0.05
0.525 0.05 -0.05
0.5375 0.05 -0.05
0.55 0.05 -0.05
0.5625 0.05 -0.05
0.575 0.05 -0.05
0.5875 0.05 -0.05
0.6 0.05 -0.05
0.0 0.0625 -0.05
0.0125 0.0625 -0.05
0.025 0.0625 -0.05
0.0375 0.0625 -0.05
0.05 0.0625 -0.05
0.0625 0.0625 -0.05
0.075 0.0625 -0.05
0.0875 0.0625 -0.05
0.1 0.0625 -0.05
0.1125 0.0625 -0.05
0.125 0.0625 -0.05
0.1375 0.0625 -0.05
0.15 0.0625 -0.05
0.1625 0.0625 -0.05
0.175 0.0625 -0.05
0.1875 0.0625 -0.05
0.2 0.0625 -0.05
0.2125 0.0625 -0.05
0.225 0.0625 -0.05
0.2375 0.0625 -0.05
0.25 0.0625 -0.05
0.2625 0.0625 -0.05
0.275 0.0625 -0.05
0.2875 0.0625 -0.05
0.3 0.0625 -0.05
0.3125 0.0625 -0.05
0.325 0.0625 -0.05
0.3375 0.0625 -0.05
0.35 0.0625 -0.05
0.3625 0.0625 -0.05
0.375 0.0625 -0.05
0.3875 0.0625 -0.05
0.4 0.0625 -0.05
0.4125 0.0625 -0.05
0.425 0.0625 -0.05
0.4375 0.0625 -0.05
0.45 0.0625 -0.05
0.4625 0.0625 -0.05
0.475 0.0625 -0.05
0.4875 0.0625 -0.05
0.5 0.0625 -0.05
0.5125 0.0625 -0.05
0.525 0.0625 -0.05
0.5375 0.0625 -0.05
0.55 0.0625 -0.05
0.5625 0.0625 -0.05
0.575 0.0625 -0.05
0.5875 0.0625 -0.05
0.6 0.0625 -0.05
0.0 0.075 -0.05
0.0125 0.075 -0.05
0.025 0.075 -0.05
0.0375 0.075 -0.05
0.05 0.075 -0.05
0.0625 0.075 -0.05
0.075 0.075 -0.05
0.0875 0.075 -0.05
0.1 0.075 -0.05
0.1125 0.075 -0.05
0.125 0.075 -0.05
0.1375 0.075 -0.05
0.15 0.075 -0.05
0.1625 0.075 -0.05
0.175 0.075 -0.05
0.1875 0.075 -0.05
0.2 0.075 -0.05
0.2125 0.075 -0.05
0.225 0.075 -0.05
0.2375 0.075 -0.05
0.25 0.075 -0.05
0.2625 0.075 -0.05
0.275 0.075 -0.05
0.2875 0.075 -0.05
0.3 0.075 -0.05
0.3125 0.075 -0.05
0.325 0.075 -0.05
0.3375 0.075 -0.05
0.35 0.075 -0.05
0.3625 0.075 -0.05
0.375 0.075 -0.05
0.3875 0.075 -0.05
0.4 0.075 -0.05
0.4125 0.075 -0.05
0.425 0.075 -0.05
0.4375 0.075 -0.05
0.45 0.075 -0.05
0.4625 0.075 -0.05
0.475 0.075 -0.05
0.4875 0.075 -0.05
0.5 0.075 -0.05
0.5125 0.075 -0.05
0.525 0.075 -0.05
0.5375 0.075 -0.05
0.55 0.075 -0.05
0.5625 0.075 -0.05
0.575 0.075 -0.05
0.5875 0.075 -0.05
0.6 0.075 -0.05
0.0 0.0875 -0.05
0.0125 0.0875 -0.05
0.025 0.0875 -0.05
0.0375 0.0875 -0.05
0.05 0.0875 -0.05
0.0625 0.0875 -0.05
0.075 0.0875 -0.05
0.0875 0.0875 -0.05
0.1 0.0875 -0.05
0.1125 0.0875 -0.05
0.125 0.0875 -0.05
0.1375 0.0875 -0.05
0.15 0.0875 -0.05
0.1625 0.0875 -0.05
0.175 0.0875 -0.05
0.1875 0.0875 -0.05
0.2 0.0875 -0.05
0.2125 0.0875 -0.05
0.225 0.0875 -0.05
0.2375 0.0875 -0.05
0.25 0.0875 -0.05
0.2625 0.0875 -0.05
0.275 0.0875 -0.05
0.2875 0.0875 -0.05
0.3 0.0875 -0.05
0.3125 0.0875 -0.05
0.325 0.0875 -0.05
0.3375 0.0875 -0.05
0.35 0.0875 -0.05
0.3625 0.0875 -0.05
0.375 0.0875 -0.05
0.3875 0.0875 -0.05
0.4 0.0875 -0.05
0.4125 0.0875 -0.05
0.425 0.0875 -0.05
0.4375 0.0875 -0.05
0.45 0.0875 -0.05
0.4625 0.0875 -0.05
0.475 0.0875 -0.05
0.4875 0.0875 -0.05
0.5 0.0875 -0.05
0.5125 0.0875 -0.05
0.525 0.0875 -0.05
0.5375 0.0875 -0.05
0.55 0.0875 -0.05
0.5625 0.0875 -0.05
0.575 0.0875 -0.05
0.5875 0.0875 -0.05
0.6 0.0875 -0.05
0.0 0.1 -0.05
0.0125 0.1 -0.05
0.025 0.1 -0.05
0.0375 0.1 -0.05
0.05 0.1 -0.05
0.0625 0.1 -0.05
0.075 0.1 -0.05
0.0875 0.1 -0.05
0.1 0.1 -0.05
0.1125 0.1 -0.05
0.125 0.1 -0.05
0.1375 0.1 -0.05
0.15 0.1 -0.05
0.1625 0.1 -0.05
0.175 0.1 -0.05
0.1875 0.1 -0.05
0.2 0.1 -0.05
0.2125 0.1 -0.05
0.225 0.1 -0.05
0.2375 0.1 -0.05
0.25 0.1 -0.05
0.2625 0.1 -0.05
0.275 0.1 -0.05
0.2875 0.1 -0.05
0.3 0.1 -0.05
0.3125 0.1 -0.05
0.325 0.1 -0.05
0.3375 0.1 -0.05
0.35 0.1 -0.05
0.3625 0.1 -0.05
0.375 0.1 -0.05
0.3875 0.1 -0.05
0.4 0.1 -0.05
0.4125 0.1 -0.05
0.425 0.1 -0.05
0.4375 0.1 -0.05
0.45 0.1 -0.05
0.4625 0.1 -0.05
0.475 0.1 -0.05
0.4875 0.1 -0.05
0.5 0.1 -0.05
0.5125 0.1 -0.05
0.525 0.1 -0.05
0.5375 0.1 -0.05
0.55 0.1 -0.05
0.5625 0.1 -0.05
0.575 0.1 -0.05
0.5875 0.1 -0.05
0.6 0.1 -0.05
0.0 0.1125 -0.05
0.0125 0.1125 -0.05
0.025 0.1125 -0.05
0.0375 0.1125 -0.05
0.05 0.1125 -0.05
0.0625 0.1125 -0.05
0.075 0.1125 -0.05
0.0875 0.1125 -0.05
0.1 0.1125 -0.05
0.1125 0.1125 -0.05
0.125 0.1125 -0.05
0.1375 0.1125 -0.05
0.15 0.1125 -0.05
0.1625 0.1125 -0.05
0.175 0.1125 -0.05
0.1875 0.1125 -0.05
0.2 0.1125 -0.05
0.2125 0.1125 -0.05
0.225 0.1125 -0.05
0.2375 0.1125 -0.05
0.25 0.1125 -0.05
0.2625 0.1125 -0.05
0.275 0.1125 -0.05
0.2875 0.1125 -0.05
0.3 0.1125 -0.05
0.3125 0.1125 -0.05
0.325 0.1125 -0.05
0.3375 0.1125 -0.05
0.35 0.1125 -0.05
0.3625 0.1125 -0.05
0.375 0.1125 -0.05
0.3875 0.1125 -0.05
0.4 0.1125 -0.05
0.4125 0.1125 -0.05
0.425 0.1125 -0.05
0.4375 0.1125 -0.05
0.45 0.1125 -0.05
0.4625 0.1125 -0.05
0.475 0.1125 -0.05
0.4875 0.1125 -0.05
0.5 0.1125 -0.05
0.5125 0.1125 -0.05
0.525 0.1125 -0.05
0.5375 0.1125 -0.05
0.55 0.1125 -0.05
0.5625 0.1125 -0.05
0.575 0.1125 -0.05
0.5875 0.1125 -0.05
0.6 0.1125 -0.05
0.0 0.125 -0.05
0.0125 0.125 -0.05
0.025 0.125 -0.05
0.0375 0.125 -0.05
0.05 0.125 -0.05
0.0625 0.125 -0.05
0.075 0.125 -0.05
0.0875 0.125 -0.05
0.1 0.125 -0.05
0.1125 0.125 -0.05
0.125 0.125 -0.05
0.1375 0.125 -0.05
0.15 0.125 -0.05
0.1625 0.125 -0.05
0.175 0.125 -0.05
0.1875 0.125 -0.05
0.2 0.125 -0.05
0.2125 0.125 -0.05
0.225 0.125 -0.05
0.2375 0.125 -0.05
0.25 0.125 -0.05
0.2625 0.125 -0.05
0.275 0.125 -0.05
0.2875 0.125 -0.05
0.3 0.125 -0.05
0.3125 0.125 -0.05
0.325 0.125 -0.05
0.3375 0.125 -0.05
0.35 0.125 -0.05
0.3625 0.125 -0.05
0.375 0.125 -0.05
0.3875 0.125 -0.05
0.4 0.125 -0.05
0.4125 0.125 -0.05
0.425 0.125 -0.05
0.4375 0.125 -0.05
0.45 0.125 -0.05
0.4625 0.125 -0.05
0.475 0.125 -0.05
0.4875 0.125 -0.05
0.5 0.125 -0.05
0.5125 0.125 -0.05
0.525 0.125 -0.05
0.5375 0.125 -0.05
0.55 0.125 -0.05
0.5625 0.125 -0.05
0.575 0.125 -0.05
0.5875 0.125 -0.05
0.6 0.125 -0.05
0.0 0.1375 -0.05
0.0125 0.1375 -0.05
0.025 0.1375 -0.05
0.0375 0.1375 -0.05
0.05 0.1375 -0.05
0.0625 0.1375 -0.05
0.075 0.1375 -0.05
0.0875 0.1375 -0.05
[...]
CELL_DATA 16128
SCALARS P float 1
LOOKUP_TABLE default
99999.98603009399
100000.02270447816
99999.96306163039
100000.0601206085
99999.90233718885
100000.15881583771
99999.74229124734
100000.41824051949
99999.32278042738
100001.09493481362
99998.23624249092
100002.82724775316
99995.50788569855
100007.03310517504
99989.28255264582
100015.49878026788
99980.06706308865
100017.89051276929
100011.57574296827
99867.66337178773
100541.32980027366
98222.35958863057
105675.23708351857
83937.74737380873
160687.51287413036
579848.2015638407
984741.1809908118
1.0564815464061296e6
1.0577452175040795e6
1.0719662089149654e6
1.0826338854407934e6
1.0936883825920501e6
1.1040711913688104e6
1.114078674964527e6
1.1236047521222061e6
1.1326968951184542e6
1.141290771590796e6
1.1494467098226384e6
1.1570084434015462e6
1.1641691179823517e6
1.1704983700702358e6
1.1766322702618164e6
1.1813339460864463e6
1.1866269150160386e6
1.18882689225094e6
1.1942485606286572e6
1.1916855170491438e6
1.200672883298699e6
99999.9862297289
100000.02234081765
99999.96372511769
100000.05889893716
99999.90456338278
100000.15472662343
99999.74972011626
100000.40473359128
99999.34706251818
100001.05159095823
99998.31245483132
100002.69548092461
99995.7299578675
100006.67182120988
99989.83864102657
100014.72088843083
99980.95079970759
100017.47777916801
100009.66475501681
99877.02299139395
100511.04729441978
98304.611635909
105451.09490437145
84416.49736693941
158698.23490976923
576760.9924593093
985939.4977301243
1.061022881173511e6
1.0626907207842036e6
1.0773750478213131e6
1.088231031464422e6
1.0994127498000292e6
1.1098875782553605e6
1.1199812675245972e6
1.1295972981759564e6
1.1387868993439046e6
1.1474856029446227e6
1.1557520563845765e6
1.1634266230298784e6
1.170699351202017e6
1.1771339549983013e6
1.1833642139664823e6
1.1881421031654638e6
1.1934974249491368e6
1.1957158440846035e6
1.20116392969365e6
1.198510783195565e6
1.2075971090713588e6
99999.98641132239
100000.0221315936
99999.96403965892
100000.05856068467
99999.90489388439
100000.15469364724
99999.74888704036
100000.40780865063
99999.33883021268
100001.07108204422
99998.26917532392
100002.78779558589
99995.537823877
100007.06532252865
99989.0386264569
100016.34587068271
99977.62120532324
100024.40883228666
99994.79966743146
99909.89939816014
100434.04719131223
98487.24533168944
104955.98473909526
85576.47246374062
153095.9720181994
564683.4272275335
977909.5940065674
1.0579835697747513e6
1.0587763821748456e6
1.073258436234665e6
1.0838836144333186e6
1.0948815510940573e6
1.105185816617842e6
1.115111397021596e6
1.1245570410316007e6
1.133571399937874e6
1.142091357530118e6
1.1501762952066476e6
1.1576713423995564e6
1.1647669333310206e6
1.1710360999248826e6
1.1771087939569412e6
1.1817546237551935e6
1.1869904243827048e6
1.1891262535838832e6
1.1945235303853746e6
1.1917929757452589e6
1.2010358159553825e6
99999.98669937799
100000.02177529715
99999.96458895979
100000.05787982765
99999.90573504304
100000.15392007852
99999.74911228214
100000.40939290576
99999.33265119295
100001.08778207994
99998.22959254339
100002.87538092809
99995.351039918
100007.45542514631
99988.22875857724
100018.03479179936
99974.03215036329
100032.24446687043
99976.95557009915
99952.06129908
100328.41242479632
98753.64523868516
104204.79006214002
87414.78490000866
144975.6773817009
547588.2147836449
969041.7160931738
1.058061352672695e6
1.0582828980886254e6
1.0730028603243076e6
1.083678048811548e6
1.094705053719884e6
1.1050145864832918e6
1.1149335113190785e6
1.1243699048096125e6
1.1333768965060487e6
1.1418960008095778e6
1.1499878747110707e6
1.1575010682748836e6
1.1646238140217992e6
1.1709336049801253e6
1.177052269936292e6
1.1817559384339391e6
1.187047850930518e6
1.1892328008486927e6
1.1947001391351076e6
1.191907509889795e6
1.2014023034922092e6
99999.98714140216
100000.02115664227
99999.96557059053
100000.05646525453
99999.90780652835
100000.1510509045
99999.7529016385
100000.4048621457
99999.33698364953
100001.0863419473
99998.22129974683
100002.90917946165
99995.25571942044
100007.69328693653
99987.66152667264
100019.36910730094
99970.85665287312
100039.94323808927
99957.65418249238
100001.46679787773
100196.59051031513
99102.61663414212
103200.00154923242
89978.68460132953
134640.86785420682
524112.10619641247
955284.0327499566
1.0563537156225797e6
1.05555069989552e6
1.07015649296506e6
1.0806252066332644e6
1.0914548508987857e6
1.101572990369429e6
1.1112979150105598e6
1.1205400549995021e6
1.1293506459602113e6
1.1376734829225508e6
1.14556893045522e6
1.1528901127494792e6
1.1598231269561392e6
1.165954643354323e6
1.1718984323196074e6
1.1764479480994598e6
1.1815918697224136e6
1.1836487771960301e6
1.1890407507497168e6
1.1860703342461372e6
1.195825819049297e6
99999.98777490608
100000.02018089812
99999.96714548072
100000.05399494486
99999.91169979385
100000.14497200219
99999.76231181553
100000.39042844067
99999.3587460278
100001.05421018528
99998.26691812418
100002.84869641431
99995.32394897449
100007.6512154969
99987.56262164772
100019.94969432903
99968.80546795813
100046.22272326096
99939.26971495706
100053.60341965445
100047.70958031312
99516.52603563723
101987.95828328283
93217.24668784486
122878.2318246261
494985.8459062983
937437.4609654048
1.0546897814109435e6
1.0531512710043723e6
1.067723088239208e6
1.0781054301358305e6
1.0888171656873224e6
1.0988143701099346e6
1.1084057111478033e6
1.1175113254526518e6
1.12618393146339e6
1.134373009642231e6
1.1421408413479363e6
1.149347259586254e6
1.156177397453488e6
1.1622282759983044e6
1.1681053548672001e6
1.1726170362566852e6
1.1777362776369397e6
1.1797787822587574e6
1.1852145053214582e6
1.1821167011705597e6
1.1922473728992583e6
99999.9886077985
100000.0188176323
99999.9693652759
100000.05035489921
99999.91763287682
100000.13525333215
99999.77816738345
100000.36451710228
99999.40092516075
100000.98574300992
99998.37711337509
100002.67373269885
99995.59425175838
100007.25501029524
99988.0772882017
100019.48702724215
99968.4710712491
100049.84211931375
99924.49229868
100102.54268904637
99895.49798666812
99964.77902798909
100650.20833098929
96990.30889948554
110490.3859697876
460319.4540793556
914233.524226465
1.0519186011537744e6
1.050019183723954e6
1.064310967919411e6
1.0745204006779392e6
1.0849976836727387e6
1.0947700365371893e6
1.104122043694514e6
1.11298353405572e6
1.1214052157869088e6
1.1293403310332347e6
1.1368508090074854e6
1.1438015128847691e6
1.1503743341978656e6
1.1561755379497965e6
1.1618009217196573e6
1.1660755264023358e6
1.1709626647985203e6
1.17278027879307e6
1.178084033278227e6
1.1746796308524257e6
1.185203974451113e6
99999.9896108761
100000.01711768503
99999.97214472333
100000.04569269874
99999.9253559014
100000.12232285281
99999.79974579345
100000.32834274817
99999.46151742026
100000.88416810571
99998.54690889225
100002.39139713337
99996.05805763698
100006.5103886726
99989.2182168507
100017.9041675582
99970.12526876049
100049.99163352103
99915.61105888222
100142.13613191877
99756.67038852834
100403.86925981559
99309.74861219333
101002.7197014942
98480.45197133972
420703.66486468224
885082.4300517061
1.047949517945085e6
1.0467099050532342e6
1.0605235695503617e6
1.0706067563739147e6
1.0808399728455741e6
1.0903839425622378e6
1.0994863693105776e6
1.1080911425686632e6
1.1162476748640225e6
1.1239151522573675e6
1.1311576701020852e6
1.1378488184107016e6
1.1441719125306935e6
1.1497485501056227e6
1.1551711661779603e6
1.1592866496855533e6
1.1640515495395008e6
1.1657748138342665e6
1.1710994248071592e6
1.1674810325953052e6
1.178559112255855e6
99999.99072280325
100000.01520365923
99999.97527733695
100000.04039002839
99999.9341958262
100000.10739457428
99999.82488417566
100000.28576683463
99999.53367077313
100000.76157997697
99998.75514579378
100002.0382485454
99996.65338213349
100005.51942264833
99990.82570759494
100015.42828161872
99973.51655513248
100046.7219945887
99913.63025582222
100167.72515209991
99647.67837731045
100782.46542907196
98119.63258680138
104797.05132556021
87959.85360328059
376896.8563998394
849051.4403236439
1.0419958279516711e6
1.0431202902880976e6
1.056089756994314e6
1.066042748118579e6
1.0759578839781943e6
1.0852080817951378e6
1.0939877521692177e6
1.1022564688269831e6
1.110059494883921e6
1.1173591139135452e6
1.1242175514097407e6
1.130511350031774e6
1.1364182219387854e6
1.1415648615923733e6
1.1465324436332386e6
1.15017671539197e6
1.154457320517194e6
1.1556634785723009e6
1.1606211709449764e6
1.15635983387517e6
1.1679749846020187e6
99999.9918663729
100000.01323580713
99999.9784922806
100000.03495606303
99999.94324238699
100000.09213652438
99999.85055722848
100000.24229776833
99999.60738250647
100000.63611292929
99998.9690591675
100001.67317300086
99997.27524158033
100004.46688791297
99992.58134918957
100012.58873769965
99977.82410257065
100041.12908705439
99917.7024160243
100177.6297534608
99580.83675475998
101050.55289924728
97239.65452578566
107795.55177828118
80075.13571746074
330021.9818859408
805349.4129751485
1.0332014842189132e6
1.0394299258093417e6
1.0511227386518475e6
1.0609806517357626e6
1.0705330187235733e6
1.079451977942591e6
1.0878640037136285e6
1.0957470578911207e6
1.10314254405414e6
1.1100176400018495e6
1.1164362217960914e6
1.122284121387541e6
1.1277435105995997e6
1.1324617953716125e6
1.1370271110662338e6
1.140329166224904e6
1.1443395930419913e6
1.1453415651795333e6
1.1502896751765988e6
1.145717942956586e6
1.1581641553451712e6
99999.99297087466
100000.01136314718
99999.98153708996
100000.02986871777
99999.95163326204
100000.07814467982
99999.87383244712
100000.20335366104
99999.67264165972
100000.5262803757
99999.1544248504
100001.35931906641
99997.80755204646
100003.56461727027
99994.1033256523
100010.0585229192
99981.90720893836
100034.99990363618
99925.4909782378
100173.21416633029
99562.13834184558
101168.9778582063
96808.42056671697
109398.1049571004
75833.3616026595
281549.32319747406
753305.5185452577
1.0203213754556271e6
1.0356739669035943e6
1.0455916585449707e6
1.055372280240131e6
1.0645025472005454e6
1.073032260684039e6
1.0810086466044697e6
1.0884269717372688e6
1.0953212482108294e6
1.101657767429153e6
1.1074937009603025e6
1.1127100757019701e6
1.1174748713774304e6
1.1214243184561564e6
1.125122991442328e6
1.1274362127117515e6
1.1303478647250663e6
1.1300541064507081e6
1.1338889330322077e6
1.1276766737429237e6
1.140718799168104e6
99999.99399257649
100000.00967661831
99999.98425816961
100000.02541668438
99999.95884563023
100000.06639062888
99999.89290513072
100000.17231611878
99999.72308124907
100000.4441267631
99999.28837516684
100001.14018348904
99998.16754764094
100002.9696063587
99995.09562725395
100008.3877453182
99984.76517126239
100030.06903617163
99934.2082690552
100158.01940157222
99589.65546790141
101123.83727894239
96888.3830546056
109289.26509190472
75796.59051980473
233258.02962278575
692591.5827275973
1.0018209005133916e6
1.0318483766535147e6
1.0395573142727065e6
1.0492593922653527e6
1.0579198798564118e6
1.0660073182720474e6
1.0734881178964584e6
1.0803732129663897e6
1.0866897650103827e6
1.0924046274505982e6
1.0975729682549306e6
1.102081710332379e6
1.1061031880542343e6
1.109298914661529e6
1.1122528499251981e6
1.1138934215296924e6
1.1162398763723134e6
1.1155516692095567e6
1.119249832052886e6
1.1126918564125993e6
1.1268434325729155e6
99999.99492510378
100000.00818312637
99999.98664667249
100000.02160601816
99999.96487642394
100000.0568666014
99999.90779405272
100000.14916542522
99999.75865638045
100000.38998266218
99999.36965617082
100001.01963507688
99998.34449851772
100002.7096349637
99995.48932517829
100007.74074139721
99986.01323122793
100027.20422476988
99941.89282297611
100136.23334533526
99654.08636851981
100934.00952814188
97436.512754153
107588.19542671963
79855.29483597011
187215.21870496863
623393.2592960469
975847.2261907033
1.0277443764488084e6
1.0330924929960074e6
1.0426512311274083e6
1.0507985243541533e6
1.0583820169294616e6
1.0652979267789107e6
1.071565018805807e6
1.077198773096562e6
1.0821564540868183e6
1.0864759340783898e6
1.0900219775132777e6
1.0929298073346547e6
1.0948071844711225e6
1.0961643646292964e6
1.0957951378556294e6
1.0956747275019437e6
1.0917055102750428e6
1.092033493772522e6
1.0804697432372086e6
1.0945256661341444e6
99999.99579460204
100000.00681362455
99999.9888262354
100000.01817966781
99999.97021681497
100000.04861480067
99999.9203290965
100000.1304204367
99999.78592867783
100000.35158629871
99999.42096171803
100000.9561798327
99998.41309581728
100002.65318800311
99995.50817694589
100007.75752266384
99986.16787202233
100025.8467106528
99948.47600256339
100110.88208343911
99741.70321132157
100648.1811476222
98302.45714858307
104803.91755529316
87111.07652850439
145835.33007067398
546645.7096064243
940291.6046018391
1.0228086266527442e6
1.026320243539785e6
1.0355706931992676e6
1.043176945448526e6
1.0501968154253657e6
1.0564850753389085e6
1.0620596065051788e6
1.06692442469939e6
1.0710275913388133e6
1.0743940995094473e6
1.0768815577265157e6
1.0786155139579887e6
1.0792225573579464e6
1.0792265884726893e6
1.077543701759555e6
1.076150286668547e6
1.0713839299596762e6
1.0708152630439452e6
1.0592486659356232e6
1.072543294768331e6
99999.99664057573
100000.00546538917
99999.99098101884
100000.01475640081
99999.97560170236
100000.04019074979
99999.93331017093
100000.11066401916
99999.8153278227
100000.30895451378
99999.48038538499
100000.87770181328
99998.50866137691
100002.54962491196
99995.60741668926
100007.63709988147
99986.56207684336
100024.01320768481
99956.14247909168
100082.40995789802
99838.6687993994
100331.63449578009
99274.65355191717
101711.09170084553
95800.78338292253
111891.85410503267
464291.8335936315
892896.408866371
1.0159038180071015e6
1.0193819581050586e6
1.0280300440453751e6
1.0350861623262255e6
1.0414843255744037e6
1.0470828132813368e6
1.051885365846201e6
1.055879240267123e6
1.0589905219714197e6
1.061210554927669e6
1.062348082259769e6
1.0624495402046202e6
1.061010189898176e6
1.058347185795111e6
1.0529812613403061e6
1.0464602677813704e6
1.033788492416004e6
1.0231702040488999e6
993805.4775379573
1.0003065606348119e6
99999.99748983311
100000.00406278683
99999.99325002648
100000.01104034908
99999.98161816005
100000.03041190846
99999.9490903768
100000.08522768797
99999.85607782805
100000.24394120317
99999.58347726971
100000.7149440851
99998.76515319354
100002.14259021688
99996.26987965599
100006.49365088117
99988.75180356936
100019.19593342031
99968.23889603216
100048.95184197785
99935.60505919378
100042.29354977614
100134.09845396655
99104.17705125353
103556.0460893081
88216.00919030071
379536.9300578779
831601.1055938038
1.0050853427687496e6
1.0123967189286771e6
1.0200435986498643e6
1.0265638752123278e6
1.032293830336676e6
1.0371521462420264e6
1.0411191713027745e6
1.0441651205589358e6
1.0461933394789515e6
1.0471627884088287e6
1.0468471175519571e6
1.0452384270502089e6
1.0418060029195254e6
1.0367898014263195e6
1.0288572730887927e6
1.0193618186222853e6
1.0045972272420675e6
989732.9178500908
961591.9009442123
928512.4299047348
99999.99833526008
100000.00260925155
99999.99563482247
100000.00700815863
99999.98834570972
100000.01906364526
99999.96819942335
100000.05288198266
99999.91094198765
100000.15049684019
99999.74324161543
100000.44041367927
99999.23980817528
100001.31500216934
99997.73001370537
100003.87227479601
99993.57940149307
100009.97090730663
99986.7634696796
100009.33974224859
100026.3324463815
99819.77518144718
100715.20415860886
97539.17698649316
108157.62419830766
76614.26647137974
296718.4625006278
755264.646410414
987581.8404591315
1.0054075404973519e6
1.0116549176868065e6
1.0176593581512984e6
1.0226862460592156e6
1.0267621171188775e6
1.0298382241370134e6
1.0318648451213635e6
1.0327138929654321e6
1.0322969650395558e6
1.0303186632269548e6
1.0266520719613336e6
1.0205829845833579e6
1.0119593559215458e6
998791.0371885295
980832.1411998569
951358.0173125818
908498.1736896852
823006.5697740212
671613.9994638102
99999.99913019685
100000.00120347762
99999.9979686019
100000.00297580405
99999.9952174977
100000.00718934738
99999.98873788954
100000.01709753435
99999.9735962179
100000.0401263659
99999.93880545339
100000.09183877084
99999.86472955131
100000.18842776616
99999.77133289634
100000.15710163473
100000.36391336269
99997.55952219237
100009.4644824863
99968.01943098135
100101.01313438742
99688.2569784433
100941.94745095013
97198.59047918498
108602.67275811739
76545.10542383067
220633.78808975342
664390.8052016005
960018.7352568886
998274.6221848098
1.0029832876231717e6
1.0084494340696939e6
1.0127460800517743e6
1.0160061816238692e6
1.0181531618105447e6
1.0191158189613936e6
1.0187348823752949e6
1.0168715994167161e6
1.0131705542139766e6
1.0073954976035153e6
998694.8407274188
986651.7669407564
968983.2326959764
944762.0130485307
907035.648661612
852425.5156155318
757290.0322083399
601615.4999526995
99999.99980270445
100000.00000756125
99999.99996983344
99999.9994950891
100000.00120626012
99999.99674768568
100000.00699722217
99999.98492753178
100000.0306210202
99999.9383885007
100000.1214642318
99999.76200448221
100000.46335869479
99999.09795140501
100001.76099438006
99996.53351073644
100006.91549043171
99985.91375899703
100029.4852141359
99935.97684567896
100144.66917126965
99657.3991728301
100847.0021004126
97834.99268204629
105911.26238251501
84736.60297134494
156074.11972164924
561347.0348433962
918530.795837643
990303.5818100895
994210.3099894774
999020.8138748606
1.0025659449380194e6
1.0049864703233858e6
1.0061836930540344e6
1.0060644058080367e6
1.0044371369564722e6
1.0011230376139899e6
995710.3742715784
987881.6937142032
976689.5097487022
961569.3879359622
940131.97144362
911318.6187510577
868564.3313205066
809634.368588348
715544.0669809707
582824.7362527639
100000.00028429937
99999.9991788529
100000.00136125568
99999.99711590528
100000.00527321838
99999.98974454739
100000.01912578287
99999.9637990847
100000.06767871416
99999.87300142841
100000.23757006212
99999.55476544819
100000.83478758836
99998.43122312697
100002.95493300624
99994.41575257604
100010.59112843344
99979.82432749963
100038.60416755534
99925.74002382296
100143.42899697633
99721.4736598218
100541.60900779949
98946.61393832394
102068.21947113061
96153.95997536262
108197.80567090647
450789.7592938643
858842.777450371
979525.0740319908
985460.1911910749
989428.1841267201
992222.5685768827
993799.7413568565
994051.2461685207
992862.6661961174
990017.5039628921
985306.3588198936
978280.8544119289
968578.4084274169
955209.6562698168
937585.1375972409
913348.5496895617
881686.7547146302
836581.8053249548
777741.3561963927
689339.6485713997
578731.9948579103
100000.00053990661
99999.99879792171
100000.00199749606
99999.99612877991
100000.00686204087
99999.98726424882
100000.0230206857
99999.95780410507
100000.07679912413
99999.85951060173
100000.25677044196
99999.52938977824
100000.86342054207
99998.41288183718
100002.91978182126
99994.62832426933
100009.86034533694
99982.0036943102
100032.43560715711
99942.92788023238
100095.60896273359
99855.30722794248
100162.81024577867
100022.30312781589
98933.20100693191
105234.88211066693
81392.75709302348
340326.2784495108
777544.4218011225
962189.6625023586
976658.2635326426
979692.1822606686
981773.6926262339
982532.9425993239
981869.7063953811
979653.8361746153
975656.0551806157
969647.8429019152
961165.2086430618
949834.5000476148
934673.2953561347
915147.3823461849
889037.4371435735
855893.5961026585
810398.3481135273
753724.7265814195
673081.6331157555
579524.5491183415
100000.00058445682
99999.99882931937
100000.00193570262
99999.99642226873
100000.00617508996
99999.98892331029
100000.01940563085
99999.96556018482
100000.06063858743
99999.89277760213
100000.18906786041
99999.66628331214
100000.58792065803
99998.96594901987
100001.81065292552
99996.85344465432
100005.38930616998
99991.01264986649
100014.21236901675
99979.97694841046
100019.81737946719
100011.48809190007
99838.17520041107
100704.40618970951
97497.24012034625
108371.41402526447
75563.78924141535
239314.32675285687
674440.2629031535
933248.7519848178
967504.701298734
969897.9333609416
971299.834257752
971281.5132365578
969750.9972185532