# vtk DataFile Version 2.0
JuliaCFD
ASCII
DATASET UNSTRUCTURED_GRID

POINTS 32898 float
0.0 0.0 -0.05
0.0125 0.0 -0.05
0.025 0.0 -0.05
0.0375 0.0 -0.05
0.05 0.0 -0.05
0.0625 0.0 -0.05
0.075 0.0 -0.05
0.0875 0.0 -0.05
0.1 0.0 -0.05
0.1125 0.0 -0.05
0.125 0.0 -0.05
0.1375 0.0 -0.05
0.15 0.0 -0.05
0.1625 0.0 -0.05
0.175 0.0 -0.05
0.1875 0.0 -0.05
0.2 0.0 -0.05
0.2125 0.0 -0.05
0.225 0.0 -0.05
0.2375 0.0 -0.05
0.25 0.0 -0.05
0.2625 0.0 -0.05
0.275 0.0 -0.05
0.2875 0.0 -0.05
0.3 0.0 -0.05
0.3125 0.0 -0.05
0.325 0.0 -0.05
0.3375 0.0 -0.05
0.35 0.0 -0.05
0.3625 0.0 -0.05
0.375 0.0 -0.05
0.3875 0.0 -0.05
0.4 0.0 -0.05
0.4125 0.0 -0.05
0.425 0.0 -0.05
0.4375 0.0 -0.05
0.45 0.0 -0.05
0.4625 0.0 -0.05
0.475 0.0 -0.05
0.4875 0.0 -0.05
0.5 0.0 -0.05
0.5125 0.0 -0.05
0.525 0.0 -0.05
0.5375 0.0 -0.05
0.55 0.0 -0.05
0.5625 0.0 -0.05
0.575 0.0 -0.05
0.5875 0.0 -0.05
0.6 0.0 -0.05
0.0 0.0125 -0.05
0.0125 0.0125 -0.05
0.025 0.0125 -0.05
0.0375 0.0125 -0.05
0.05 0.0125 -0.05
0.0625 0.0125 -0.05
0.075 0.0125 -0.05
0.0875 0.0125 -0.05
0.1 0.0125 -0.05
0.1125 0.0125 -0.05
0.125 0.0125 -0.05
0.1375 0.0125 -0.05
0.15 0.0125 -0.05
0.1625 0.0125 -0.05
0.175 0.0125 -0.05
0.1875 0.0125 -0.05
0.2 0.0125 -0.05
0.2125 0.0125 -0.05
0.225 0.0125 -0.05
0.2375 0.0125 -0.05
0.25 0.0125 -0.05
0.2625 0.0125 -0.05
0.275 0.0125 -0.05
0.2875 0.0125 -0.05
0.3 0.0125 -0.05
0.3125 0.0125 -0.05
0.325 0.0125 -0.05
0.3375 0.0125 -0.05
0.35 0.0125 -0.05
0.3625 0.0125 -0.05
0.375 0.0125 -0.05
0.3875 0.0125 -0.05
0.4 0.0125 -0.05
0.4125 0.0125 -0.05
0.425 0.0125 -0.05
0.4375 0.0125 -0.05
0.45 0.0125 -0.05
0.4625 0.0125 -0.05
0.475 0.0125 -0.05
0.4875 0.0125 -0.05
0.5 0.0125 -0.05
0.5125 0.0125 -0.05
0.525 0.0125 -0.05
0.5375 0.0125 -0.05
0.55 0.0125 -0.05
0.5625 0.0125 -0.05
0.575 0.0125 -0.05
0.5875 0.0125 -0.05
0.6 0.0125 -0.05
0.0 0.025 -0.05
0.0125 0.025 -0.05
0.025 0.025 -0.05
0.0375 0.025 -0.05
0.05 0.025 -0.05
0.0625 0.025 -0.05
0.075 0.025 -0.05
0.0875 0.025 -0.05
0.1 0.025 -0.05
0.1125 0.025 -0.05
0.125 0.025 -0.05
0.1375 0.025 -0.05
0.15 0.025 -0.05
0.1625 0.025 -0.05
0.175 0.025 -0.05
0.1875 0.025 -0.05
0.2 0.025 -0.05
0.2125 0.025 -0.05
0.225 0.025 -0.05
0.2375 0.025 -0.05
0.25 0.025 -0.05
0.2625 0.025 -0.05
0.275 0.025 -0.05
0.2875 0.025 -0.05
0.3 0.025 -0.05
0.3125 0.025 -0.05
0.325 0.025 -0.05
0.3375 0.025 -0.05
0.35 0.025 -0.05
0.3625 0.025 -0.05
0.375 0.025 -0.05
0.3875 0.025 -0.05
0.4 0.025 -0.05
0.4125 0.025 -0.05
0.425 0.025 -0.05
0.4375 0.025 -0.05
0.45 0.025 -0.05
0.4625 0.025 -0.05
0.475 0.025 -0.05
0.4875 0.025 -0.05
0.5 0.025 -0.05
0.5125 0.025 -0.05
0.525 0.025 -0.05
0.5375 0.025 -0.05
0.55 0.025 -0.05
0.5625 0.025 -0.05
0.575 0.025 -0.05
0.5875 0.025 -0.05
0.6 0.025 -0.05
0.0 0.0375 -0.05
0.0125 0.0375 -0.05
0.025 0.0375 -0.05
0.0375 0.0375 -0.05
0.05 0.0375 -0.05
0.0625 0.0375 -0.05
0.075 0.0375 -0.05
0.0875 0.0375 -0.05
0.1 0.0375 -0.05
0.1125 0.0375 -0.05
0.125 0.0375 -0.05
0.1375 0.0375 -0.05
0.15 0.0375 -0.05
0.1625 0.0375 -0.05
0.175 0.0375 -0.05
0.1875 0.0375 -0.05
0.2 0.0375 -0.05
0.2125 0.0375 -0.05
0.225 0.0375 -0.05
0.2375 0.0375 -0.05
0.25 0.0375 -0.05
0.2625 0.0375 -0.05
0.275 0.0375 -0.05
0.2875 0.0375 -0.05
0.3 0.0375 -0.05
0.3125 0.0375 -0.05
0.325 0.0375 -0.05
0.3375 0.0375 -0.05
0.35 0.0375 -0.05
0.3625 0.0375 -0.05
0.375 0.0375 -0.05
0.3875 0.0375 -0.05
0.4 0.0375 -0.05
0.4125 0.0375 -0.05
0.425 0.0375 -0.05
0.4375 0.0375 -0.05
0.45 0.0375 -0.05
0.4625 0.0375 -0.05
0.475 0.0375 -0.05
0.4875 0.0375 -0.05
0.5 0.0375 -0.05
0.5125 0.0375 -0.05
0.525 0.0375 -0.05
0.5375 0.0375 -0.05
0.55 0.0375 -0.05
0.5625 0.0375 -0.05
0.575 0.0375 -0.05
0.5875 0.0375 -0.05
0.6 0.0375 -0.05
0.0 0.05 -0.05
0.0125 0.05 -0.05
0.025 0.05 -0.05
0.0375 0.05 -0.05
0.05 0.05 -0.05
0.0625 0.05 -0.05
0.075 0.05 -0.05
0.0875 0.05 -0.05
0.1 0.05 -0.05
0.1125 0.05 -0.05
0.125 0.05 -0.05
0.1375 0.05 -0.05
0.15 0.05 -0.05
0.1625 0.05 -0.05
0.175 0.05 -0.05
0.1875 0.05 -0.05
0.2 0.05 -0.05
0.2125 0.05 -0.05
0.225 0.05 -0.05
0.2375 0.05 -0.05
0.25 0.05 -0.05
0.2625 0.05 -0.05
0.275 0.05 -0.05
0.2875 0.05 -0.05
0.3 0.05 -0.05
0.3125 0.05 -0.05
0.325 0.05 -0.05
0.3375 0.05 -0.05
0.35 0.05 -0.05
0.3625 0.05 -0.05
0.375 0.05 -0.05
0.3875 0.05 -0.05
0.4 0.05 -0.05
0.4125 0.05 -0.05
0.425 0.05 -0.05
0.4375 0.05 -0.05
0.45 0.05 -0.05
0.4625 0.05 -0.05
0.475 0.05 -0.05
0.4875 0.05 -0.05
0.5 0.05 -0.05
0.5125 0.05 -0.05
0.525 0.05 -0.05
0.5375 0.05 -0.05
0.55 0.05 -0.05
0.5625 0.05 -0.05
0.575 0.05 -0.05
0.5875 0.05 -0.05
0.6 0.05 -0.05
0.0 0.0625 -0.05
0.0125 0.0625 -0.05
0.025 0.0625 -0.05
0.0375 0.0625 -0.05
0.05 0.0625 -0.05
0.0625 0.0625 -0.05
0.075 0.0625 -0.05
0.0875 0.0625 -0.05
0.1 0.0625 -0.05
0.1125 0.0625 -0.05
0.125 0.0625 -0.05
0.1375 0.0625 -0.05
0.15 0.0625 -0.05
0.1625 0.0625 -0.05
0.175 0.0625 -0.05
0.1875 0.0625 -0.05
0.2 0.0625 -0.05
0.2125 0.0625 -0.05
0.225 0.0625 -0.05
0.2375 0.0625 -0.05
0.25 0.0625 -0.05
0.2625 0.0625 -0.05
0.275 0.0625 -0.05
0.2875 0.0625 -0.05
0.3 0.0625 -0.05
0.3125 0.0625 -0.05
0.325 0.0625 -0.05
0.3375 0.0625 -0.05
0.35 0.0625 -0.05
0.3625 0.0625 -0.05
0.375 0.0625 -0.05
0.3875 0.0625 -0.05
0.4 0.0625 -0.05
0.4125 0.0625 -0.05
0.425 0.0625 -0.05
0.4375 0.0625 -0.05
0.45 0.0625 -0.05
0.4625 0.0625 -0.05
0.475 0.0625 -0.05
0.4875 0.0625 -0.05
0.5 0.0625 -0.05
0.5125 0.0625 -0.05
0.525 0.0625 -0.05
0.5375 0.0625 -0.05
0.55 0.0625 -0.05
0.5625 0.0625 -0.05
0.575 0.0625 -0.05
0.5875 0.0625 -0.05
0.6 0.0625 -0.05
0.0 0.075 -0.05
0.0125 0.075 -0.05
0.025 0.075 -0.05
0.0375 0.075 -0.05
0.05 0.075 -0.05
0.0625 0.075 -0.05
0.075 0.075 -0.05
0.0875 0.075 -0.05
0.1 0.075 -0.05
0.1125 0.075 -0.05
0.125 0.075 -0.05
0.1375 0.075 -0.05
0.15 0.075 -0.05
0.1625 0.075 -0.05
0.175 0.075 -0.05
0.1875 0.075 -0.05
0.2 0.075 -0.05
0.2125 0.075 -0.05
0.225 0.075 -0.05
0.2375 0.075 -0.05
0.25 0.075 -0.05
0.2625 0.075 -0.05
0.275 0.075 -0.05
0.2875 0.075 -0.05
0.3 0.075 -0.05
0.3125 0.075 -0.05
0.325 0.075 -0.05
0.3375 0.075 -0.05
0.35 0.075 -0.05
0.3625 0.075 -0.05
0.375 0.075 -0.05
0.3875 0.075 -0.05
0.4 0.075 -0.05
0.4125 0.075 -0.05
0.425 0.075 -0.05
0.4375 0.075 -0.05
0.45 0.075 -0.05
0.4625 0.075 -0.05
0.475 0.075 -0.05
0.4875 0.075 -0.05
0.5 0.075 -0.05
0.5125 0.075 -0.05
0.525 0.075 -0.05
0.5375 0.075 -0.05
0.55 0.075 -0.05
0.5625 0.075 -0.05
0.575 0.075 -0.05
0.5875 0.075 -0.05
0.6 0.075 -0.05
0.0 0.0875 -0.05
0.0125 0.0875 -0.05
0.025 0.0875 -0.05
0.0375 0.0875 -0.05
0.05 0.0875 -0.05
0.0625 0.0875 -0.05
0.075 0.0875 -0.05
0.0875 0.0875 -0.05
0.1 0.0875 -0.05
0.1125 0.0875 -0.05
0.125 0.0875 -0.05
0.1375 0.0875 -0.05
0.15 0.0875 -0.05
0.1625 0.0875 -0.05
0.175 0.0875 -0.05
0.1875 0.0875 -0.05
0.2 0.0875 -0.05
0.2125 0.0875 -0.05
0.225 0.0875 -0.05
0.2375 0.0875 -0.05
0.25 0.0875 -0.05
0.2625 0.0875 -0.05
0.275 0.0875 -0.05
0.2875 0.0875 -0.05
0.3 0.0875 -0.05
0.3125 0.0875 -0.05
0.325 0.0875 -0.05
0.3375 0.0875 -0.05
0.35 0.0875 -0.05
0.3625 0.0875 -0.05
0.375 0.0875 -0.05
0.3875 0.0875 -0.05
0.4 0.0875 -0.05
0.4125 0.0875 -0.05
0.425 0.0875 -0.05
0.4375 0.0875 -0.05
0.45 0.0875 -0.05
0.4625 0.0875 -0.05
0.475 0.0875 -0.05
0.4875 0.0875 -0.05
0.5 0.0875 -0.05
0.5125 0.0875 -0.05
0.525 0.0875 -0.05
0.5375 0.0875 -0.05
0.55 0.0875 -0.05
0.5625 0.0875 -0.05
0.575 0.0875 -0.05
0.5875 0.0875 -0.05
0.6 0.0875 -0.05
0.0 0.1 -0.05
0.0125 0.1 -0.05
0.025 0.1 -0.05
0.0375 0.1 -0.05
0.05 0.1 -0.05
0.0625 0.1 -0.05
0.075 0.1 -0.05
0.0875 0.1 -0.05
0.1 0.1 -0.05
0.1125 0.1 -0.05
0.125 0.1 -0.05
0.1375 0.1 -0.05
0.15 0.1 -0.05
0.1625 0.1 -0.05
0.175 0.1 -0.05
0.1875 0.1 -0.05
0.2 0.1 -0.05
0.2125 0.1 -0.05
0.225 0.1 -0.05
0.2375 0.1 -0.05
0.25 0.1 -0.05
0.2625 0.1 -0.05
0.275 0.1 -0.05
0.2875 0.1 -0.05
0.3 0.1 -0.05
0.3125 0.1 -0.05
0.325 0.1 -0.05
0.3375 0.1 -0.05
0.35 0.1 -0.05
0.3625 0.1 -0.05
0.375 0.1 -0.05
0.3875 0.1 -0.05
0.4 0.1 -0.05
0.4125 0.1 -0.05
0.425 0.1 -0.05
0.4375 0.1 -0.05
0.45 0.1 -0.05
0.4625 0.1 -0.05
0.475 0.1 -0.05
0.4875 0.1 -0.05
0.5 0.1 -0.05
0.5125 0.1 -0.05
0.525 0.1 -0.05
0.5375 0.1 -0.05
0.55 0.1 -0.05
0.5625 0.1 -0.05
0.575 0.1 -0.05
0.5875 0.1 -0.05
0.6 0.1 -0.05
0.0 0.1125 -0.05
0.0125 0.1125 -0.05
0.025 0.1125 -0.05
0.0375 0.1125 -0.05
0.05 0.1125 -0.05
0.0625 0.1125 -0.05
0.075 0.1125 -0.05
0.0875 0.1125 -0.05
0.1 0.1125 -0.05
0.1125 0.1125 -0.05
0.125 0.1125 -0.05
0.1375 0.1125 -0.05
0.15 0.1125 -0.05
0.1625 0.1125 -0.05
0.175 0.1125 -0.05
0.1875 0.1125 -0.05
0.2 0.1125 -0.05
0.2125 0.1125 -0.05
0.225 0.1125 -0.05
0.2375 0.1125 -0.05
0.25 0.1125 -0.05
0.2625 0.1125 -0.05
0.275 0.1125 -0.05
0.2875 0.1125 -0.05
0.3 0.1125 -0.05
0.3125 0.1125 -0.05
0.325 0.1125 -0.05
0.3375 0.1125 -0.05
0.35 0.1125 -0.05
0.3625 0.1125 -0.05
0.375 0.1125 -0.05
0.3875 0.1125 -0.05
0.4 0.1125 -0.05
0.4125 0.1125 -0.05
0.425 0.1125 -0.05
0.4375 0.1125 -0.05
0.45 0.1125 -0.05
0.4625 0.1125 -0.05
0.475 0.1125 -0.05
0.4875 0.1125 -0.05
0.5 0.1125 -0.05
0.5125 0.1125 -0.05
0.525 0.1125 -0.05
0.5375 0.1125 -0.05
0.55 0.1125 -0.05
0.5625 0.1125 -0.05
0.575 0.1125 -0.05
0.5875 0.1125 -0.05
0.6 0.1125 -0.05
0.0 0.125 -0.05
0.0125 0.125 -0.05
0.025 0.125 -0.05
0.0375 0.125 -0.05
0.05 0.125 -0.05
0.0625 0.125 -0.05
0.075 0.125 -0.05
0.0875 0.125 -0.05
0.1 0.125 -0.05
0.1125 0.125 -0.05
0.125 0.125 -0.05
0.1375 0.125 -0.05
0.15 0.125 -0.05
0.1625 0.125 -0.05
0.175 0.125 -0.05
0.1875 0.125 -0.05
0.2 0.125 -0.05
0.2125 0.125 -0.05
0.225 0.125 -0.05
0.2375 0.125 -0.05
0.25 0.125 -0.05
0.2625 0.125 -0.05
0.275 0.125 -0.05
0.2875 0.125 -0.05
0.3 0.125 -0.05
0.3125 0.125 -0.05
0.325 0.125 -0.05
0.3375 0.125 -0.05
0.35 0.125 -0.05
0.3625 0.125 -0.05
0.375 0.125 -0.05
0.3875 0.125 -0.05
0.4 0.125 -0.05
0.4125 0.125 -0.05
0.425 0.125 -0.05
0.4375 0.125 -0.05
0.45 0.125 -0.05
0.4625 0.125 -0.05
0.475 0.125 -0.05
0.4875 0.125 -0.05
0.5 0.125 -0.05
0.5125 0.125 -0.05
0.525 0.125 -0.05
0.5375 0.125 -0.05
0.55 0.125 -0.05
0.5625 0.125 -0.05
0.575 0.125 -0.05
0.5875 0.125 -0.05
0.6 0.125 -0.05
0.0 0.1375 -0.05
0.0125 0.1375 -0.05
0.025 0.1375 -0.05
0.0375 0.1375 -0.05
0.05 0.1375 -0.05
0.0625 0.1375 -0.05
0.075 0.1375 -0.05
0.0875 0.1375 -0.05
[...]
CELL_DATA 16128
SCALARS P float 1
LOOKUP_TABLE default
100000.00748485202
99999.98682155959
100000.02138700834
99999.96345163448
100000.0605575538
99999.8976471156
100000.17120398818
99999.71130023262
100000.48588677277
99999.17799112549
100001.39508861759
99997.61381873791
100004.12409383904
99992.74673121543
100013.0804415421
99975.49908379171
100048.17804199905
99899.12654369192
100225.48715230578
99463.13382433767
101362.76465617934
96495.24942092136
110032.88520940242
75259.77998906281
243100.09168668956
710217.5615488127
1.0276247551655843e6
1.0491373202675171e6
1.0589335572715397e6
1.0710071234110405e6
1.082036249606437e6
1.092820291424666e6
1.1031156736089054e6
1.1129952792301641e6
1.122420767239123e6
1.1314179129053226e6
1.1399289481613988e6
1.1480106845853783e6
1.1555073245796293e6
1.1626102882844533e6
1.1688897883815044e6
1.1749792183965005e6
1.1796446907429448e6
1.1849029741619648e6
1.1870803375792282e6
1.1924734540832597e6
1.1899069760754632e6
1.1988677427380164e6
100000.00747645163
99999.98692294543
100000.0213529642
99999.96357865467
100000.06054723352
99999.89764162904
100000.1715724755
99999.71039134199
100000.48813616806
99999.17339495207
100001.40399946988
99997.5980440855
100004.14970478644
99992.71102058611
100013.11629597473
99975.50828699266
100047.99490147545
99899.85213721277
100223.39433007814
99468.71496850996
101349.51701142201
96525.39074482513
109965.4667671326
75355.47192599857
240441.75778722166
707908.0434205184
1.0301345069692255e6
1.0538040772535314e6
1.0639775884947565e6
1.076424546605236e6
1.087612510352957e6
1.0985093906582e6
1.1088917051638523e6
1.1188570266904968e6
1.1283737015023718e6
1.1374702653330734e6
1.1460881848931755e6
1.154282412346447e6
1.1618937034718865e6
1.1691103953226148e6
1.1754968296569376e6
1.1816841713451876e6
1.186427459318419e6
1.19174975522121e6
1.193947279335279e6
1.199368341612084e6
1.196713230416138e6
1.205773195998675e6
100000.00645635418
99999.98877845575
100000.01829965165
99999.96893098149
100000.05150473723
99999.91327886253
100000.14485802023
99999.75641419503
100000.409114139
99999.3095092821
100001.16966036535
99998.00208750207
100003.45290986281
99993.91396463677
100011.03928807331
99979.10007123463
100041.7858894027
99910.6256469553
100204.7048261855
99501.37586663017
101291.65521652852
96626.22210886319
109764.18222001444
75613.5454281797
232597.20609775436
696079.6856193321
1.0241640756269303e6
1.05075471719591e6
1.0600091587868077e6
1.0723151934472856e6
1.083273178141791e6
1.093998962276828e6
1.1042129013474344e6
1.1140121937739062e6
1.1233587071378892e6
1.132280082440688e6
1.1407190906811042e6
1.148731701482153e6
1.1561634071548972e6
1.1632029474478245e6
1.1694238848784019e6
1.1754535459604154e6
1.1800644255031035e6
1.1852667436739905e6
1.1873808339579878e6
1.192750403964351e6
1.1900169259360908e6
1.1992330995978247e6
100000.0050618758
99999.99132472409
100000.01412318557
99999.97624488227
100000.03916856415
99999.93456946153
100000.10855338426
99999.81880719411
100000.30225274767
99999.49303255127
100000.85471262947
99998.54320909266
100002.52311024953
99995.51354783813
100008.28538488295
99983.85620908687
100033.5504483453
99925.01971209375
100179.31958624758
99547.15664533671
101205.95912935231
96788.59230065979
109396.86758052692
76209.83665307339
221162.59705511702
679832.0627876587
1.0188565518975252e6
1.0509927384650079e6
1.0595217788759728e6
1.0721060174705659e6
1.083077180946205e6
1.0938296911590374e6
1.1040408505645008e6
1.113831326185055e6
1.1231670606862209e6
1.132080952178897e6
1.1405194428755476e6
1.1485396921118319e6
1.1559903567652896e6
1.1630579135193059e6
1.1693202720904134e6
1.1753966596614225e6
1.1800659580775388e6
1.1853249596227307e6
1.1874884314474682e6
1.1929284954615852e6
1.1901328843519317e6
1.1996013664526083e6
100000.00345329991
99999.99425278566
100000.00933161739
99999.98460984613
100000.02509309268
99999.95879259112
100000.0673467787
99999.88944853403
100000.18152218772
99999.69998278728
100000.50004237088
99999.15220308668
100001.47608276237
99997.3191109819
100005.16046319781
99989.3051138305
100023.95987040787
99942.22288716343
100147.7360799365
99607.42760317637
101084.00069172765
97041.602003003
108765.53165963315
77395.62738649415
206202.97280471836
657066.6982585562
1.0098104128329362e6
1.0495648925031147e6
1.0566851771513647e6
1.0692885543999656e6
1.0800166986379316e6
1.0905868431179281e6
1.1006049479500416e6
1.1102043598089737e6
1.119346902738165e6
1.12806588969164e6
1.136309367309647e6
1.144134504288672e6
1.1513944113721545e6
1.158273468389428e6
1.164358653288133e6
1.1702611805434083e6
1.1747770460507413e6
1.179888705675153e6
1.1819242370816204e6
1.1872892717921266e6
1.184315326664163e6
1.1940451072604004e6
100000.00181212957
99999.9972146424
100000.00449648133
99999.99300241238
100000.01102480995
99999.98289268934
100000.02650668008
99999.95920454353
100000.06266750829
99999.90324637244
100000.15211939874
99999.74979480618
100000.44605030718
99999.10560283842
100002.03588622395
99994.84784621026
100013.93848476525
99960.91158635952
100111.50225575965
99681.39380931247
100921.8794407368
97405.13084780135
107795.5283543741
79407.20772051909
188531.22647916852
628413.7991714783
998028.359994158
1.0485413533719083e6
1.0541432986654837e6
1.0669222900744257e6
1.0774988036224162e6
1.0879637257549572e6
1.0978530049697019e6
1.1073187454951722e6
1.1163236234824976e6
1.124904903841704e6
1.1330151903431602e6
1.1407137088487635e6
1.1478599970934726e6
1.1546374245207193e6
1.1606431433606264e6
1.1664800785059882e6
1.1709589293212763e6
1.176046675926766e6
1.1780680035044218e6
1.1834772899072254e6
1.1803754547166298e6
1.1904813012631515e6
100000.0003022483
99999.99989721074
100000.00013130807
100000.00050286773
99999.99853436327
100000.00411532365
99999.9908010952
100000.01976195429
99999.96013528839
100000.07768180441
99999.85463353002
100000.26012627677
99999.56438201756
100000.64632625127
99999.30001579241
99999.82595955269
100004.57759996869
99979.33725203037
100073.18949989416
99765.88904294839
100721.17854719439
97887.02743752996
106447.1893673792
82439.53264694722
168878.44181202064
593555.0648946707
982140.256355084
1.0469258953509026e6
1.0507442491394768e6
1.0635866061445621e6
1.073903149712178e6
1.0841555663344415e6
1.0938136329777807e6
1.103042373941648e6
1.1118034143265728e6
1.120135158164143e6
1.1279928524749668e6
1.1354356666222145e6
1.1423279538446646e6
1.148849856863327e6
1.1546076184639947e6
1.1601945449084674e6
1.1644377050934054e6
1.1692946716624722e6
1.1710917558582705e6
1.176369911027987e6
1.17296105256045e6
1.1834616777600758e6
99999.99904294155
100000.0020754143
99999.99660459078
100000.00645518281
99999.98874190377
100000.02049533816
99999.96364675273
100000.06512067087
99999.88446969449
100000.20465692316
99999.64061799762
100000.62437416422
99998.93620093445
100001.75274181773
99997.29170000525
100003.62944736985
99996.97204930037
99995.54099387847
100036.24876588889
99854.9208683852
100492.55689171828
98473.93368752267
104747.44570238651
86556.53274829836
148238.53885187005
552690.4956890105
961516.8860212791
1.0449165930482331e6
1.0470334245711456e6
1.059907672917862e6
1.069979431328593e6
1.080013574416315e6
1.0894343936000178e6
1.0984150484089078e6
1.1069188532792416e6
1.1149863387491135e6
1.1225774558035461e6
1.1297537971916527e6
1.1363881798473473e6
1.1426621446761757e6
1.1481970750117288e6
1.1535829225975405e6
1.1576683094499332e6
1.1624042696192996e6
1.1641075162874903e6
1.169407325150638e6
1.1657839550828037e6
1.1768394775625332e6
99999.99809207438
100000.00364710357
99999.99408094991
100000.01057851483
99999.98211719912
100000.03122742262
99999.94642904765
100000.09285359443
99999.83997737114
100000.27639014043
99999.52436990006
100000.8157855799
99998.61246479345
100002.32605324687
99996.20598465228
100005.86622686885
99991.92638154795
100007.83547659754
100004.32363219836
99940.47785518042
100254.02709081674
99127.857685417
102806.95471756133
91612.38128844295
127771.34996422361
506106.6657105651
935046.113630549
1.0420481137697318e6
1.0428656477760997e6
1.0556054930730234e6
1.065397745455207e6
1.0751448940437466e6
1.0842630453257477e6
1.0929232850409707e6
1.1010912016678483e6
1.1088066839416963e6
1.1160315621730334e6
1.1228258334876082e6
1.1290650450406787e6
1.1349251408957876e6
1.140032449163942e6
1.1449656910945012e6
1.1485820812865393e6
1.1528359004610262e6
1.1540235218241622e6
1.1589577130751484e6
1.1546913444203096e6
1.1662851793543189e6
99999.99744427484
100000.004639179
99999.99250947744
100000.01299326189
99999.9784235811
100000.03678672492
99999.93824341704
100000.10465543228
99999.82357026752
100000.29836653153
99999.4964485651
100000.84992952776
99998.56916505823
100002.39893192041
99996.01147663278
100006.52347962795
99989.64496637083
100015.394201635
99980.13319902723
100014.61173545849
100028.78459775427
99786.39120704682
100819.44067356887
97182.1561342599
108842.67757916781
454474.8780684284
901646.8823074638
1.0378547058287524e6
1.0384204888205728e6
1.0507937415462872e6
1.0603151172432448e6
1.0697326679589194e6
1.0785104342197103e6
1.0868052804647316e6
1.0945878232379633e6
1.101897375702493e6
1.1086995304939074e6
1.1150561576087137e6
1.1208518653489202e6
1.1262670243015408e6
1.1309484877897874e6
1.1354818937430677e6
1.1387581519712624e6
1.1427435580653644e6
1.143727980293225e6
1.1486539390950054e6
1.1440767539881244e6
1.156502671708321e6
99999.99704549254
100000.00517964088
99999.99166943578
100000.01413898519
99999.97685359017
100000.03869938914
99999.93626537021
100000.10575750747
99999.82564107463
100000.28812377091
99999.52511111769
100000.78364191175
99998.70609082156
100002.14412572196
99996.42159705247
100006.0466051816
99989.53205083802
100018.72546306405
99964.4030717763
100071.60013419535
99840.31441097976
100372.06650276094
99032.82968511035
102550.1870645819
92958.04173872812
398881.4327596607
860162.4981286064
1.0314913636512643e6
1.0337742109872795e6
1.0454235776518186e6
1.0546823481267134e6
1.0637099520707955e6
1.072090768653534e6
1.0799525223674832e6
1.0872712966217878e6
1.0940817594064076e6
1.100347697212024e6
1.1061244650418267e6
1.1112916978772732e6
1.116015579136207e6
1.119931681286274e6
1.1236021034361052e6
1.1258932210774953e6
1.1287836454013376e6
1.128475843388089e6
1.132290415147993e6
1.1260737529122273e6
1.1390966871948892e6
99999.99682039961
100000.00544034362
99999.99126647065
100000.01459314863
99999.97634877385
100000.0389624218
99999.93678212859
100000.10309032658
99999.83330335823
100000.2695820315
99999.56611447182
100000.6983477928
99998.87454537448
100001.82995072858
99996.96189064818
100005.24748189755
99990.28555034456
100019.66533744661
99955.45271478104
100109.7002417374
99706.19779430433
100809.79938943594
97694.80965462585
106813.17513179251
81594.85671252037
340911.9436236989
809565.7123770678
1.0217728386371206e6
1.0290491031045039e6
1.0395222899819057e6
1.0485434025163099e6
1.0571282840552963e6
1.0650624590546058e6
1.0724314312394932e6
1.079218632232963e6
1.0854538786250218e6
1.0911009346564647e6
1.0962132925206942e6
1.100676326596399e6
1.104660532925883e6
1.1078265697910823e6
1.1107557855659174e6
1.112377572956985e6
1.1147048424382666e6
1.1140043732876822e6
1.1176861068676298e6
1.111122725231369e6
1.125254674640473e6
99999.99670407799
100000.00556733241
99999.99105154857
100000.01484125457
99999.97601830063
100000.03926029781
99999.93664108458
100000.10259419399
99999.83537053985
100000.26383839278
99999.57968430899
100000.66892013972
99998.9341097685
100001.71786740154
99997.15174486306
100004.99014331134
99990.41413905895
100020.59615673163
99950.11586195262
100130.8444452818
99634.54035762766
101045.11090424773
96994.50803895765
109109.08732224035
75875.49580188762
282625.2155760663
749153.805423
1.0070939594686468e6
1.0243056773498098e6
1.0331105134552531e6
1.0419119796496044e6
1.0500002249565432e6
1.0574312413392717e6
1.0642382438246014e6
1.0704097202115683e6
1.0759649319286835e6
1.0808579188654495e6
1.0851250139868145e6
1.0886293794880053e6
1.0915044399459525e6
1.0933570776476327e6
1.0946949406191707e6
1.0943129631947854e6
1.0941813456750119e6
1.0902069074551773e6
1.0905221402087552e6
1.0789591317028166e6
1.0929957987448655e6
99999.9966663987
100000.00562445656
99999.99091865662
100000.0150836334
99999.97550083435
100000.040269607
99999.9345768224
100000.10667485367
99999.82723560833
100000.27980304522
99999.54847745164
100000.72928485404
99998.81828639818
100001.93797613759
99996.73814205384
100005.75941852543
99989.00998238739
100023.13339804228
99945.73657607577
100138.40345258046
99623.60507479939
101061.42247037978
96996.13784759819
109045.79756308412
76113.75414938702
226415.79377736247
678809.4319089231
985475.8682109426
1.0194938222877086e6
1.0262585897854387e6
1.0348260061551305e6
1.0423701891175349e6
1.0492429175229704e6
1.0554240132418675e6
1.0609049133448983e6
1.0656935023440716e6
1.0697348395634647e6
1.0730524548322323e6
1.0755022650830885e6
1.0772080476166254e6
1.0777950676957024e6
1.0777851475864607e6
1.0760939845840477e6
1.0746938173209757e6
1.0699244266686256e6
1.0693475987304724e6
1.0577801113756092e6
1.0710608188729158e6
99999.99671898679
100000.00557496017
99999.99093783925
100000.01516662746
99999.97510213371
100000.0413788676
99999.93178223608
100000.11303749186
99999.8132547054
100000.30933228736
99999.4875028999
100000.85227367895
99998.57520370254
100002.4074735206
99995.85723366548
100007.34687097774
99986.34417349906
100027.05342791758
99941.96315309567
100134.80826708487
99663.37992353814
100890.05124208861
97594.52765666116
106982.52076882095
81534.7668398028
174932.87801509045
599215.4799379552
954600.0605795529
1.0142821911333983e6
1.0190783600280179e6
1.0273215146377353e6
1.034281095219939e6
1.0405380941078316e6
1.0460278634101007e6
1.05073707825702e6
1.0546556764324752e6
1.0577071027182783e6
1.059881183450814e6
1.0609849487185057e6
1.0610632220238326e6
1.0596100165793966e6
1.0569405118690063e6
1.051575722087364e6
1.0450597731087689e6
1.0324007580730016e6
1.0217901070132685e6
992449.3255105341
998931.8699739107
99999.99690104803
100000.00531226178
99999.99130283302
100000.01468306208
99999.9756162167
100000.0410144587
99999.9313298012
100000.11570783284
99999.80497866328
100000.33023081279
99999.43916556549
100000.95748561579
99998.35589833245
100002.84631985992
99995.01816180839
100008.85452300037
99983.91592717555
100030.09713652628
99941.3573937766
100120.03776315143
99739.6706345431
100600.22106854887
98547.34702692038
103798.99638195847
90300.95318092781
131215.9845818362
512126.88553224225
911870.4412304207
1.0077918858723638e6
1.0117106291365287e6
1.0194298878532089e6
1.0257806179016164e6
1.0313708054677873e6
1.0361145188501214e6
1.0399862254477104e6
1.04295626222263e6
1.0449254736276274e6
1.045851101949915e6
1.0455050663855451e6
1.0438777677048222e6
1.0404372392377958e6
1.0354213178074893e6
1.0274970961063926e6
1.0180141310639859e6
1.0032676402594233e6
988418.5624163368
960297.6950858834
927267.9981724034
99999.99724969579
100000.0047291522
99999.99221072021
100000.01321103866
99999.977879956
100000.03749140892
99999.93656533264
100000.10806888543
99999.81543183124
100000.3169957017
99999.45317464895
100000.94862803309
99998.345490032
100002.90253689067
99994.8791672552
100009.08348099967
99983.81175107026
100028.93452646672
99948.25000013481
100092.0228590626
99838.29133416241
100274.24377714728
99561.60138945628
100588.67151362347
99618.63542052677
98627.46461231002
420734.64005500387
854653.986225878
998266.6884640798
1.0042749232229557e6
1.0111688884026986e6
1.0169105463313919e6
1.0217946955448545e6
1.0257489158650654e6
1.0287273717298822e6
1.0306772541500722e6
1.0314680217204632e6
1.0310090684217061e6
1.0290037470936391e6
1.025323403083701e6
1.0192527168721065e6
1.0106381784338182e6
997490.5234566637
979562.0795457481
950136.3809173937
907338.0820837659
821969.2574922561
670740.6654667094
99999.9977683723
100000.00379424485
99999.99372729361
100000.01058553105
99999.98225571704
100000.03002146335
99999.94915905678
100000.08663795955
99999.8517980535
100000.25496632753
99999.55920889997
100000.76616250133
99998.66225315545
100002.34422449421
99995.88661544303
100007.19929994432
99987.51810812419
100021.15708872324
99965.78897431964
100049.52825072796
99947.39269400807
99979.84269257619
100377.93213134997
98263.10888835188
106439.04573397205
79923.55806547093
329835.8494997155
781037.144959852
982901.6146031586
996805.9429541089
1.0025623875046142e6
1.0077167378317625e6
1.0118739704528529e6
1.0150122694970059e6
1.0170632166098196e6
1.0179510025540504e6
1.0175141215982942e6
1.0156121343698337e6
1.0118881153917144e6
1.0061047668932371e6
997409.6719801503
985384.9826299566
967749.581521706
943574.4659511952
905918.7685815146
851394.0451195918
756413.1451207036
600917.799067851
99999.99840915753
100000.0025970544
99999.99570610576
100000.00706537164
99999.98830458794
100000.01936577148
99999.96780768828
100000.05365515487
99999.91025206246
100000.15065210938
99999.74626978376
100000.42855013433
99999.2753884044
100001.22278955443
99997.95345008462
100003.35667387408
99994.73410897024
100007.44309857079
99992.23004992757
99997.64378840917
100051.48669701008
99765.92461321074
100834.29301391632
97282.09954857531
108754.3449914418
75383.99035505495
245143.73831809213
690937.7218283251
958089.3993994258
989199.1392819927
993699.9209941719
998271.3421222045
1.0016916032797588e6
1.0040000866765894e6
1.0051079322384191e6
1.0049191276750459e6
1.0032406585608667e6
999892.9412462264
994462.830593525
986632.135899396
975453.0417472905
960360.2914229415
938967.0106464163
910212.1804338063
867543.1166529224
808711.6867166599
714781.7243246919
582229.47015525
99999.99907912075
100000.00133525522
99999.99780899785
100000.00329621586
99999.99484719185
100000.00773424847
99999.9883898279
100000.01686112632
99999.97622320525
100000.03157020967
99999.96226431026
100000.03459044902
99999.99731581859
99999.89436137406
100000.40468621581
99998.83017442744
100003.07118805316
99992.21365409145
100019.56916151912
99950.31794638491
100127.81428080857
99663.42490973053
100901.47874038685
97556.58727477775
106941.05853931532
81771.26625651846
172274.84027736553
586555.3206609628
919695.4881048043
980938.1176984041
984757.8155539323
988673.7793931181
991347.1644947989
992820.2523524466
992987.7326274876
991734.7110598589
988843.9219949202
984104.8642729224
977068.2592813199
967370.737958499
954022.8524376411
936434.358437184
912251.4934723598
880658.2132768348
835647.8062816922
776913.4568462818
688668.1350621406
578214.2397524918
99999.99966922653
100000.00024619901
99999.99962571025
100000.00007159718
100000.00041526827
99999.99791183564
100000.00564471302
99999.98626147155
100000.03063107473
99999.93423039146
100000.13714422254
99999.718932721
100000.56897699919
99998.85697273814
100002.2859234053
99995.43598828475
100009.11837152361
99981.72328657204
100036.81942163884
99925.21323305627
100153.24351831949
99681.87509304521
100668.0951715121
98579.75203198098
103116.58721841098
93413.97236585076
116947.96835013157
472577.8730898473
863034.9809195113
970319.7387203377
975873.479453195
978998.6195981834
980926.1428602482
981573.2700253899
980823.7971060483
978544.7897289385
974505.1112483002
968474.0681834095
959986.3906431776
948667.4299164347
933534.5702538249
914052.6731500905
888004.5931575228
854937.2766991986
809542.4546648653
752979.5511064997
672486.3268232566
579074.5101302189
100000.00009258345
99999.99951507873
100000.00083577275
99999.99800688328
100000.00387525275
99999.99203784316
100000.01555070066
99999.96947141434
100000.05901424341
99999.88620177137
100000.21819292594
99999.58259691653
100000.79661336336
99998.4817786183
100002.88937518276
99994.5104214817
100010.39957584596
99980.39884177495
100036.58982531657
99932.85178061633
100119.22521499668
99801.01275617436
100286.66287539205
99742.34088102444
99568.92834694173
103788.3529370329
84370.74831154573
356998.301798326
783920.1626021836
953674.8891904602
966948.8760246459
969263.223101559
970483.7902757466
970342.3558651122