# vtk DataFile Version 2.0
JuliaCFD
ASCII
DATASET UNSTRUCTURED_GRID

POINTS 32898 float
0.0 0.0 -0.05
0.0125 0.0 -0.05
0.025 0.0 -0.05
0.0375 0.0 -0.05
0.05 0.0 -0.05
0.0625 0.0 -0.05
0.075 0.0 -0.05
0.0875 0.0 -0.05
0.1 0.0 -0.05
0.1125 0.0 -0.05
0.125 0.0 -0.05
0.1375 0.0 -0.05
0.15 0.0 -0.05
0.1625 0.0 -0.05
0.175 0.0 -0.05
0.1875 0.0 -0.05
0.2 0.0 -0.05
0.2125 0.0 -0.05
0.225 0.0 -0.05
0.2375 0.0 -0.05
0.25 0.0 -0.05
0.2625 0.0 -0.05
0.275 0.0 -0.05
0.2875 0.0 -0.05
0.3 0.0 -0.05
0.3125 0.0 -0.05
0.325 0.0 -0.05
0.3375 0.0 -0.05
0.35 0.0 -0.05
0.3625 0.0 -0.05
0.375 0.0 -0.05
0.3875 0.0 -0.05
0.4 0.0 -0.05
0.4125 0.0 -0.05
0.425 0.0 -0.05
0.4375 0.0 -0.05
0.45 0.0 -0.05
0.4625 0.0 -0.05
0.475 0.0 -0.05
0.4875 0.0 -0.05
0.5 0.0 -0.05
0.5125 0.0 -0.05
0.525 0.0 -0.05
0.5375 0.0 -0.05
0.55 0.0 -0.05
0.5625 0.0 -0.05
0.575 0.0 -0.05
0.5875 0.0 -0.05
0.6 0.0 -0.05
0.0 0.0125 -0.05
0.0125 0.0125 -0.05
0.025 0.0125 -0.05
0.0375 0.0125 -0.05
0.05 0.0125 -0.05
0.0625 0.0125 -0.05
0.075 0.0125 -0.05
0.0875 0.0125 -0.05
0.1 0.0125 -0.05
0.1125 0.0125 -0.05
0.125 0.0125 -0.05
0.1375 0.0125 -0.05
0.15 0.0125 -0.05
0.1625 0.0125 -0.05
0.175 0.0125 -0.05
0.1875 0.0125 -0.05
0.2 0.0125 -0.05
0.2125 0.0125 -0.05
0.225 0.0125 -0.05
0.2375 0.0125 -0.05
0.25 0.0125 -0.05
0.2625 0.0125 -0.05
0.275 0.0125 -0.05
0.2875 0.0125 -0.05
0.3 0.0125 -0.05
0.3125 0.0125 -0.05
0.325 0.0125 -0.05
0.3375 0.0125 -0.05
0.35 0.0125 -0.05
0.3625 0.0125 -0.05
0.375 0.0125 -0.05
0.3875 0.0125 -0.05
0.4 0.0125 -0.05
0.4125 0.0125 -0.05
0.425 0.0125 -0.05
0.4375 0.0125 -0.05
0.45 0.0125 -0.05
0.4625 0.0125 -0.05
0.475 0.0125 -0.05
0.4875 0.0125 -0.05
0.5 0.0125 -0.05
0.5125 0.0125 -0.05
0.525 0.0125 -0.05
0.5375 0.0125 -0.05
0.55 0.0125 -0.05
0.5625 0.0125 -0.05
0.575 0.0125 -0.05
0.5875 0.0125 -0.05
0.6 0.0125 -0.05
0.0 0.025 -0.05
0.0125 0.025 -0.05
0.025 0.025 -0.05
0.0375 0.025 -0.05
0.05 0.025 -0.05
0.0625 0.025 -0.05
0.075 0.025 -0.05
0.0875 0.025 -0.05
0.1 0.025 -0.05
0.1125 0.025 -0.05
0.125 0.025 -0.05
0.1375 0.025 -0.05
0.15 0.025 -0.05
0.1625 0.025 -0.05
0.175 0.025 -0.05
0.1875 0.025 -0.05
0.2 0.025 -0.05
0.2125 0.025 -0.05
0.225 0.025 -0.05
0.2375 0.025 -0.05
0.25 0.025 -0.05
0.2625 0.025 -0.05
0.275 0.025 -0.05
0.2875 0.025 -0.05
0.3 0.025 -0.05
0.3125 0.025 -0.05
0.325 0.025 -0.05
0.3375 0.025 -0.05
0.35 0.025 -0.05
0.3625 0.025 -0.05
0.375 0.025 -0.05
0.3875 0.025 -0.05
0.4 0.025 -0.05
0.4125 0.025 -0.05
0.425 0.025 -0.05
0.4375 0.025 -0.05
0.45 0.025 -0.05
0.4625 0.025 -0.05
0.475 0.025 -0.05
0.4875 0.025 -0.05
0.5 0.025 -0.05
0.5125 0.025 -0.05
0.525 0.025 -0.05
0.5375 0.025 -0.05
0.55 0.025 -0.05
0.5625 0.025 -0.05
0.575 0.025 -0.05
0.5875 0.025 -0.05
0.6 0.025 -0.05
0.0 0.0375 -0.05
0.0125 0.0375 -0.05
0.025 0.0375 -0.05
0.0375 0.0375 -0.05
0.05 0.0375 -0.05
0.0625 0.0375 -0.05
0.075 0.0375 -0.05
0.0875 0.0375 -0.05
0.1 0.0375 -0.05
0.1125 0.0375 -0.05
0.125 0.0375 -0.05
0.1375 0.0375 -0.05
0.15 0.0375 -0.05
0.1625 0.0375 -0.05
0.175 0.0375 -0.05
0.1875 0.0375 -0.05
0.2 0.0375 -0.05
0.2125 0.0375 -0.05
0.225 0.0375 -0.05
0.2375 0.0375 -0.05
0.25 0.0375 -0.05
0.2625 0.0375 -0.05
0.275 0.0375 -0.05
0.2875 0.0375 -0.05
0.3 0.0375 -0.05
0.3125 0.0375 -0.05
0.325 0.0375 -0.05
0.3375 0.0375 -0.05
0.35 0.0375 -0.05
0.3625 0.0375 -0.05
0.375 0.0375 -0.05
0.3875 0.0375 -0.05
0.4 0.0375 -0.05
0.4125 0.0375 -0.05
0.425 0.0375 -0.05
0.4375 0.0375 -0.05
0.45 0.0375 -0.05
0.4625 0.0375 -0.05
0.475 0.0375 -0.05
0.4875 0.0375 -0.05
0.5 0.0375 -0.05
0.5125 0.0375 -0.05
0.525 0.0375 -0.05
0.5375 0.0375 -0.05
0.55 0.0375 -0.05
0.5625 0.0375 -0.05
0.575 0.0375 -0.05
0.5875 0.0375 -0.05
0.6 0.0375 -0.05
0.0 0.05 -0.05
0.0125 0.05 -0.05
0.025 0.05 -0.05
0.0375 0.05 -0.05
0.05 0.05 -0.05
0.0625 0.05 -0.05
0.075 0.05 -0.05
0.0875 0.05 -0.05
0.1 0.05 -0.05
0.1125 0.05 -0.05
0.125 0.05 -0.05
0.1375 0.05 -0.05
0.15 0.05 -0.05
0.1625 0.05 -0.05
0.175 0.05 -0.05
0.1875 0.05 -0.05
0.2 0.05 -0.05
0.2125 0.05 -0.05
0.225 0.05 -0.05
0.2375 0.05 -0.05
0.25 0.05 -0.05
0.2625 0.05 -0.05
0.275 0.05 -0.05
0.2875 0.05 -0.05
0.3 0.05 -0.05
0.3125 0.05 -0.05
0.325 0.05 -0.05
0.3375 0.05 -0.05
0.35 0.05 -0.05
0.3625 0.05 -0.05
0.375 0.05 -0.05
0.3875 0.05 -0.05
0.4 0.05 -0.05
0.4125 0.05 -0.05
0.425 0.05 -0.05
0.4375 0.05 -0.05
0.45 0.05 -0.05
0.4625 0.05 -0.05
0.475 0.05 -0.05
0.4875 0.05 -0.05
0.5 0.05 -0.05
0.5125 0.05 -0.05
0.525 0.05 -0.05
0.5375 0.05 -0.05
0.55 0.05 -0.05
0.5625 0.05 -0.05
0.575 0.05 -0.05
0.5875 0.05 -0.05
0.6 0.05 -0.05
0.0 0.0625 -0.05
0.0125 0.0625 -0.05
0.025 0.0625 -0.05
0.0375 0.0625 -0.05
0.05 0.0625 -0.05
0.0625 0.0625 -0.05
0.075 0.0625 -0.05
0.0875 0.0625 -0.05
0.1 0.0625 -0.05
0.1125 0.0625 -0.05
0.125 0.0625 -0.05
0.1375 0.0625 -0.05
0.15 0.0625 -0.05
0.1625 0.0625 -0.05
0.175 0.0625 -0.05
0.1875 0.0625 -0.05
0.2 0.0625 -0.05
0.2125 0.0625 -0.05
0.225 0.0625 -0.05
0.2375 0.0625 -0.05
0.25 0.0625 -0.05
0.2625 0.0625 -0.05
0.275 0.0625 -0.05
0.2875 0.0625 -0.05
0.3 0.0625 -0.05
0.3125 0.0625 -0.05
0.325 0.0625 -0.05
0.3375 0.0625 -0.05
0.35 0.0625 -0.05
0.3625 0.0625 -0.05
0.375 0.0625 -0.05
0.3875 0.0625 -0.05
0.4 0.0625 -0.05
0.4125 0.0625 -0.05
0.425 0.0625 -0.05
0.4375 0.0625 -0.05
0.45 0.0625 -0.05
0.4625 0.0625 -0.05
0.475 0.0625 -0.05
0.4875 0.0625 -0.05
0.5 0.0625 -0.05
0.5125 0.0625 -0.05
0.525 0.0625 -0.05
0.5375 0.0625 -0.05
0.55 0.0625 -0.05
0.5625 0.0625 -0.05
0.575 0.0625 -0.05
0.5875 0.0625 -0.05
0.6 0.0625 -0.05
0.0 0.075 -0.05
0.0125 0.075 -0.05
0.025 0.075 -0.05
0.0375 0.075 -0.05
0.05 0.075 -0.05
0.0625 0.075 -0.05
0.075 0.075 -0.05
0.0875 0.075 -0.05
0.1 0.075 -0.05
0.1125 0.075 -0.05
0.125 0.075 -0.05
0.1375 0.075 -0.05
0.15 0.075 -0.05
0.1625 0.075 -0.05
0.175 0.075 -0.05
0.1875 0.075 -0.05
0.2 0.075 -0.05
0.2125 0.075 -0.05
0.225 0.075 -0.05
0.2375 0.075 -0.05
0.25 0.075 -0.05
0.2625 0.075 -0.05
0.275 0.075 -0.05
0.2875 0.075 -0.05
0.3 0.075 -0.05
0.3125 0.075 -0.05
0.325 0.075 -0.05
0.3375 0.075 -0.05
0.35 0.075 -0.05
0.3625 0.075 -0.05
0.375 0.075 -0.05
0.3875 0.075 -0.05
0.4 0.075 -0.05
0.4125 0.075 -0.05
0.425 0.075 -0.05
0.4375 0.075 -0.05
0.45 0.075 -0.05
0.4625 0.075 -0.05
0.475 0.075 -0.05
0.4875 0.075 -0.05
0.5 0.075 -0.05
0.5125 0.075 -0.05
0.525 0.075 -0.05
0.5375 0.075 -0.05
0.55 0.075 -0.05
0.5625 0.075 -0.05
0.575 0.075 -0.05
0.5875 0.075 -0.05
0.6 0.075 -0.05
0.0 0.0875 -0.05
0.0125 0.0875 -0.05
0.025 0.0875 -0.05
0.0375 0.0875 -0.05
0.05 0.0875 -0.05
0.0625 0.0875 -0.05
0.075 0.0875 -0.05
0.0875 0.0875 -0.05
0.1 0.0875 -0.05
0.1125 0.0875 -0.05
0.125 0.0875 -0.05
0.1375 0.0875 -0.05
0.15 0.0875 -0.05
0.1625 0.0875 -0.05
0.175 0.0875 -0.05
0.1875 0.0875 -0.05
0.2 0.0875 -0.05
0.2125 0.0875 -0.05
0.225 0.0875 -0.05
0.2375 0.0875 -0.05
0.25 0.0875 -0.05
0.2625 0.0875 -0.05
0.275 0.0875 -0.05
0.2875 0.0875 -0.05
0.3 0.0875 -0.05
0.3125 0.0875 -0.05
0.325 0.0875 -0.05
0.3375 0.0875 -0.05
0.35 0.0875 -0.05
0.3625 0.0875 -0.05
0.375 0.0875 -0.05
0.3875 0.0875 -0.05
0.4 0.0875 -0.05
0.4125 0.0875 -0.05
0.425 0.0875 -0.05
0.4375 0.0875 -0.05
0.45 0.0875 -0.05
0.4625 0.0875 -0.05
0.475 0.0875 -0.05
0.4875 0.0875 -0.05
0.5 0.0875 -0.05
0.5125 0.0875 -0.05
0.525 0.0875 -0.05
0.5375 0.0875 -0.05
0.55 0.0875 -0.05
0.5625 0.0875 -0.05
0.575 0.0875 -0.05
0.5875 0.0875 -0.05
0.6 0.0875 -0.05
0.0 0.1 -0.05
0.0125 0.1 -0.05
0.025 0.1 -0.05
0.0375 0.1 -0.05
0.05 0.1 -0.05
0.0625 0.1 -0.05
0.075 0.1 -0.05
0.0875 0.1 -0.05
0.1 0.1 -0.05
0.1125 0.1 -0.05
0.125 0.1 -0.05
0.1375 0.1 -0.05
0.15 0.1 -0.05
0.1625 0.1 -0.05
0.175 0.1 -0.05
0.1875 0.1 -0.05
0.2 0.1 -0.05
0.2125 0.1 -0.05
0.225 0.1 -0.05
0.2375 0.1 -0.05
0.25 0.1 -0.05
0.2625 0.1 -0.05
0.275 0.1 -0.05
0.2875 0.1 -0.05
0.3 0.1 -0.05
0.3125 0.1 -0.05
0.325 0.1 -0.05
0.3375 0.1 -0.05
0.35 0.1 -0.05
0.3625 0.1 -0.05
0.375 0.1 -0.05
0.3875 0.1 -0.05
0.4 0.1 -0.05
0.4125 0.1 -0.05
0.425 0.1 -0.05
0.4375 0.1 -0.05
0.45 0.1 -0.05
0.4625 0.1 -0.05
0.475 0.1 -0.05
0.4875 0.1 -0.05
0.5 0.1 -0.05
0.5125 0.1 -0.05
0.525 0.1 -0.05
0.5375 0.1 -0.05
0.55 0.1 -0.05
0.5625 0.1 -0.05
0.575 0.1 -0.05
0.5875 0.1 -0.05
0.6 0.1 -0.05
0.0 0.1125 -0.05
0.0125 0.1125 -0.05
0.025 0.1125 -0.05
0.0375 0.1125 -0.05
0.05 0.1125 -0.05
0.0625 0.1125 -0.05
0.075 0.1125 -0.05
0.0875 0.1125 -0.05
0.1 0.1125 -0.05
0.1125 0.1125 -0.05
0.125 0.1125 -0.05
0.1375 0.1125 -0.05
0.15 0.1125 -0.05
0.1625 0.1125 -0.05
0.175 0.1125 -0.05
0.1875 0.1125 -0.05
0.2 0.1125 -0.05
0.2125 0.1125 -0.05
0.225 0.1125 -0.05
0.2375 0.1125 -0.05
0.25 0.1125 -0.05
0.2625 0.1125 -0.05
0.275 0.1125 -0.05
0.2875 0.1125 -0.05
0.3 0.1125 -0.05
0.3125 0.1125 -0.05
0.325 0.1125 -0.05
0.3375 0.1125 -0.05
0.35 0.1125 -0.05
0.3625 0.1125 -0.05
0.375 0.1125 -0.05
0.3875 0.1125 -0.05
0.4 0.1125 -0.05
0.4125 0.1125 -0.05
0.425 0.1125 -0.05
0.4375 0.1125 -0.05
0.45 0.1125 -0.05
0.4625 0.1125 -0.05
0.475 0.1125 -0.05
0.4875 0.1125 -0.05
0.5 0.1125 -0.05
0.5125 0.1125 -0.05
0.525 0.1125 -0.05
0.5375 0.1125 -0.05
0.55 0.1125 -0.05
0.5625 0.1125 -0.05
0.575 0.1125 -0.05
0.5875 0.1125 -0.05
0.6 0.1125 -0.05
0.0 0.125 -0.05
0.0125 0.125 -0.05
0.025 0.125 -0.05
0.0375 0.125 -0.05
0.05 0.125 -0.05
0.0625 0.125 -0.05
0.075 0.125 -0.05
0.0875 0.125 -0.05
0.1 0.125 -0.05
0.1125 0.125 -0.05
0.125 0.125 -0.05
0.1375 0.125 -0.05
0.15 0.125 -0.05
0.1625 0.125 -0.05
0.175 0.125 -0.05
0.1875 0.125 -0.05
0.2 0.125 -0.05
0.2125 0.125 -0.05
0.225 0.125 -0.05
0.2375 0.125 -0.05
0.25 0.125 -0.05
0.2625 0.125 -0.05
0.275 0.125 -0.05
0.2875 0.125 -0.05
0.3 0.125 -0.05
0.3125 0.125 -0.05
0.325 0.125 -0.05
0.3375 0.125 -0.05
0.35 0.125 -0.05
0.3625 0.125 -0.05
0.375 0.125 -0.05
0.3875 0.125 -0.05
0.4 0.125 -0.05
0.4125 0.125 -0.05
0.425 0.125 -0.05
0.4375 0.125 -0.05
0.45 0.125 -0.05
0.4625 0.125 -0.05
0.475 0.125 -0.05
0.4875 0.125 -0.05
0.5 0.125 -0.05
0.5125 0.125 -0.05
0.525 0.125 -0.05
0.5375 0.125 -0.05
0.55 0.125 -0.05
0.5625 0.125 -0.05
0.575 0.125 -0.05
0.5875 0.125 -0.05
0.6 0.125 -0.05
0.0 0.1375 -0.05
0.0125 0.1375 -0.05
0.025 0.1375 -0.05
0.0375 0.1375 -0.05
0.05 0.1375 -0.05
0.0625 0.1375 -0.05
0.075 0.1375 -0.05
0.0875 0.1375 -0.05
[...]
CELL_DATA 16128
SCALARS P float 1
LOOKUP_TABLE default
99999.97988365458
100000.03362153617
99999.94519168338
100000.09085660566
99999.85105297437
100000.24593910392
99999.59582389133
100000.666100346
99998.9044720578
100001.80332729153
99997.03493932083
100004.87380212273
99991.99881143715
100013.11364898288
99978.56486682623
100034.86166928255
99943.73779386953
100089.33844624383
99861.90814763196
100200.20892149549
99746.30633162863
100180.6607769655
100364.74843780529
97207.61463367486
110630.43387922355
461238.45888144185
921425.874431128
1.0622544149864935e6
1.0569907492636824e6
1.0728059166741564e6
1.0832735494662249e6
1.0945364491804338e6
1.105013112512144e6
1.1151286466615235e6
1.1247413723010398e6
1.1339092174493372e6
1.1425657712551407e6
1.1507735436009788e6
1.1583770371721673e6
1.1655712328651273e6
1.1719264481690736e6
1.1780813601740587e6
1.1827986121683589e6
1.1881059999519417e6
1.190315847964032e6
1.1957483523612455e6
1.1931918653938025e6
1.2021795529963009e6
99999.98009045764
100000.0331818495
99999.94589251919
100000.08951344999
99999.85336441764
100000.24168094949
99999.60337626583
100000.65242289286
99998.92886490862
100001.75977777883
99997.11174572779
100004.73978806776
99992.22823838366
100012.73079426991
99979.17895200479
100033.93710813565
99944.9722438274
100088.11517034013
99861.77407821437
100205.79378023386
99723.68733133642
100250.16563835445
100171.79011524601
97708.07774363112
109357.01485104785
457876.48998707096
921321.4447359216
1.0664658187370943e6
1.06188261934695e6
1.078196287025146e6
1.088900731294591e6
1.1003029693369553e6
1.1108780265461889e6
1.1210794223068263e6
1.1307797740734287e6
1.1400414116111074e6
1.148798580499539e6
1.1571123015641335e6
1.1648238898304736e6
1.1721253839354864e6
1.1785813661688848e6
1.18482843865694e6
1.1896182560517676e6
1.194985052553182e6
1.1972110575661068e6
1.202668486106761e6
1.2000207576682323e6
1.209107285006494e6
99999.98098118373
100000.03167938195
99999.9483349134
100000.08544241557
99999.85999911118
100000.23075264614
99999.62113400802
100000.62353011676
99998.97538585578
100001.68527011626
99997.22964678187
100004.55559821754
99992.51020507781
100012.31159657483
99979.77146804403
100033.17723483825
99945.72464087169
100088.06492241012
99858.83853392008
100218.4415393717
99681.39273493059
100379.25030794511
99788.5428967752
98846.3364470014
105877.54864356859
446387.41769809637
911434.0445143806
1.062934316425838e6
1.0581289204759477e6
1.0740417237844535e6
1.0845440380421502e6
1.095742197628926e6
1.106146406398033e6
1.1161778626144012e6
1.1257089864142903e6
1.13479712824574e6
1.143378090723108e6
1.1515132620567544e6
1.1590486539426371e6
1.1661765342923268e6
1.1724706381679543e6
1.1785635676626205e6
1.1832243967085185e6
1.1884743662125643e6
1.1906198315830228e6
1.1960282823279921e6
1.1933039578941956e6
1.2025480906311069e6
99999.98224038466
100000.02954633969
99999.9517986708
100000.07965526471
99999.86945060539
100000.2151272772
99999.64665991312
100000.58169679857
99999.04343332545
100001.57479603149
99997.40771903662
100004.27046751243
99992.96155894811
100011.60881364482
99980.83456336403
100031.65275186919
99947.66316454366
100086.35848256641
99857.59371549105
100231.61775777218
99628.03706184428
100557.3270293562
99238.35285199399
100532.08753762355
100940.5507623442
429865.6556316891
899288.2886359605
1.0620897240763528e6
1.0578022967393857e6
1.0737038325322457e6
1.0843384328412903e6
1.0955578455723377e6
1.1059783031045778e6
1.1160050338808594e6
1.125529046524234e6
1.134610382695137e6
1.1431906670220708e6
1.1513325709829282e6
1.1588857613044195e6
1.1660403744201146e6
1.1723746739635887e6
1.178513210139808e6
1.1832315636435875e6
1.1885375336163342e6
1.1907319395379052e6
1.1962107365481844e6
1.193423984434877e6
1.202920835147744e6
99999.9838076425
100000.02687637635
99999.95613948445
100000.07237353489
99999.88139675575
100000.19526832087
99999.67933980965
100000.52767917237
99999.1322590201
100001.42872019719
99997.64692617996
100003.8801314606
99993.59391184713
100010.59565629442
99982.42546785904
100029.24648850485
99951.02688635323
100082.50073793273
99859.13465052981
100242.7533904671
99570.31245306534
100766.67662004095
98573.20918547818
102643.22137737453
94960.19296403203
407539.7832229234
881310.3563019054
1.0590392186796297e6
1.0554031896721155e6
1.0707816173451685e6
1.0813015875455192e6
1.0922957610781072e6
1.1025293359401678e6
1.112358941734586e6
1.121688761170036e6
1.1305736005709732e6
1.1389582313368486e6
1.1469046420470583e6
1.1542671030076093e6
1.1612335041811664e6
1.1673911958179208e6
1.1733565915084886e6
1.1779224286043341e6
1.1830820346298658e6
1.1851496094469368e6
1.1905545245024646e6
1.1875903083403597e6
1.1973492144960135e6
99999.9855986653
100000.02380924077
99999.96113436915
100000.0639631814
99999.8952569711
100000.17211072113
99999.71770186935
100000.4637997401
99999.23825898512
100001.25259535623
99997.93887446504
100003.39700498004
99994.38967713584
100009.29507770976
99984.52020640556
100025.96471918155
99955.89194178584
100076.14197804818
99864.65886881742
100248.23769246998
99518.79488701753
100977.79591025799
97876.627387815
104953.62351712557
88645.05774251425
380238.5933605924
858193.5053226121
1.0553658693122831e6
1.0534332015169098e6
1.0682320663444558e6
1.078793839554494e6
1.0896432306096768e6
1.0997665427285698e6
1.1094624251251996e6
1.1186578194287824e6
1.1274055640650124e6
1.1356573499501948e6
1.1434768653848916e6
1.1507252795545298e6
1.1575895317032302e6
1.16366734807337e6
1.169566861054537e6
1.17409567052416e6
1.1792315550446003e6
1.181285392793233e6
1.186735223444506e6
1.1836435385290452e6
1.1937791603794375e6
99999.98751203498
100000.0205240592
99999.96649145035
100000.05492623334
99999.9101963912
100000.14707313878
99999.7593650308
100000.39408412034
99999.35466088317
100001.0578175359
99998.26449009763
100002.85278618858
99995.29691491366
100007.79013182962
99986.99194806982
100021.98414158745
99962.06491999161
100067.32447414869
99874.8858397106
100244.74800951278
99484.93334533526
101155.5533955173
97249.37245027555
107163.00564564728
82747.47195639776
348393.9357777125
828882.3892356444
1.0497530716514918e6
1.0508891821902161e6
1.064694016470836e6
1.0752332813824303e6
1.0858127049288915e6
1.0957195331550145e6
1.105173648969724e6
1.114125609038726e6
1.1226224698044667e6
1.1306207656991202e6
1.138183498512718e6
1.1451769597875497e6
1.1517847873754683e6
1.1576139154156216e6
1.1632627906745775e6
1.167555516254891e6
1.1724604070133024e6
1.1742900762590126e6
1.1796092966961537e6
1.1762108512732896e6
1.1867421189451294e6
99999.9894396146
100000.0172205351
99999.9718810828
100000.04584560066
99999.92521952148
100000.1218948479
99999.80131769643
100000.32378470011
99999.47232547379
100000.86030674464
99998.59611901833
100002.29532436821
99996.23349445852
100006.21992483127
99989.61045243483
100017.67054977761
99969.00969068939
100056.69780031043
99889.4900181658
100230.59019458677
99478.06417497019
101264.84224301088
96800.48029153173
108895.82301683228
78111.19389843187
312857.08374853444
792951.8550960727
1.0418400909384051e6
1.0483014356647984e6
1.060757726851635e6
1.071343103417108e6
1.0816421290236905e6
1.0913301721228433e6
1.1005333832477063e6
1.109230015595409e6
1.1174623088251972e6
1.125193738963754e6
1.1324892213741618e6
1.1392238962710965e6
1.145582821442361e6
1.151188283511299e6
1.1566354020315004e6
1.1607700407209645e6
1.1655539640196804e6
1.1672902429218208e6
1.1726319389373963e6
1.1690194143873493e6
1.180106888752104e6
99999.99128220482
100000.01408690872
99999.97698987837
100000.03728404443
99999.9393487518
100000.09831214037
99999.84049350666
100000.25835412854
99999.58155522069
100000.67734211149
99998.90298518197
100001.77933770404
99997.10252537433
100004.75463387552
99992.08080772229
100013.52237923889
99975.91969423652
100045.45129894315
99907.07471230315
100206.07859058525
99503.86883129118
101275.47114828482
96635.70334136175
109726.79643125944
75567.64869038669
274667.91440489516
749782.1312357484
1.0305730895017473e6
1.0455385192707834e6
1.0561710795783007e6
1.066804614097412e6
1.0767502087471036e6
1.0861522034516886e6
1.0950309513172684e6
1.103392172336515e6
1.111271102754763e6
1.1186350524220217e6
1.1255468548172675e6
1.1318846608686438e6
1.137827889060353e6
1.1430039003143788e6
1.1479965467057142e6
1.1516604261530687e6
1.1559606443641295e6
1.1571799694218356e6
1.1621559987172284e6
1.1578997602209505e6
1.1695271738359355e6
99999.99296591837
100000.01126404747
99999.98158209896
100000.02966613176
99999.9518388232
100000.07766040237
99999.87450100173
100000.2021092159
99999.6745305417
100000.52314890487
99999.15914413819
100001.3522129017
99997.81749179815
100003.55167204497
99994.11852309365
100010.04606970261
99981.9143260357
100035.0378025705
99925.4498856425
100173.69484230572
99562.0043168141
101174.24108513178
96810.570962769
109438.5462460125
75717.22064654966
235130.75734785016
699003.5919719223
1.014827825977675e6
1.0426795483290663e6
1.0510647827861654e6
1.0617617418056861e6
1.0713163828014024e6
1.080392546297202e6
1.0889026263689152e6
1.096878685912178e6
1.1043503062269774e6
1.1112900830482529e6
1.1177623957050298e6
1.1236547350237316e6
1.129150996637997e6
1.133899288045416e6
1.138490504482663e6
1.1418131454615886e6
1.145844633110323e6
1.1468610525854072e6
1.1518293641300194e6
1.1472629816802642e6
1.1597252422537492e6
99999.99445361178
100000.00881829111
99999.98554708416
100000.02318386661
99999.96235429679
100000.06053375377
99999.90227003417
100000.15700289133
99999.74763321801
100000.40451487179
99999.35171218196
100001.03863454338
99998.33073891875
100002.70343770047
99995.54396944838
100007.58947311166
99986.32270763877
100026.72345686737
99942.26488006873
100137.49276615851
99645.9048649598
100968.77191404047
97323.68973567906
107996.06209670205
78819.4143213372
195824.89916936524
640518.2873059964
993144.7366840348
1.0395753713421947e6
1.0454466854874761e6
1.0561622028717676e6
1.0652797525891345e6
1.0739677784575897e6
1.08204167030257e6
1.0895529439828752e6
1.0965233660490294e6
1.102924601375672e6
1.108814303203567e6
1.1140751398291264e6
1.1188767891327508e6
1.1228561488382553e6
1.1265805209461595e6
1.1289138718605477e6
1.131846047360998e6
1.1315654998310339e6
1.1354215464277442e6
1.1292125170939292e6
1.1422747542137161e6
99999.99574632682
100000.0067350132
99999.98891212202
100000.0177669474
99999.97103441785
100000.04664629186
99999.92434730662
100000.12200631772
99999.80273271709
100000.31814409669
99999.48627725187
100000.82962814697
99998.65547720237
100002.19363404831
99996.36797099796
100006.17749101027
99988.99184867906
100021.03691106886
99955.93928486318
100101.77055218689
99744.16027943017
100689.19924338405
98098.33261182881
105629.98731508876
84610.65138626278
158627.59504403642
574721.0121407472
963853.7067382673
1.0358996273747181e6
1.0394243043826349e6
1.0500377461317778e6
1.0586915784489093e6
1.0669334533803514e6
1.0745122645248252e6
1.0814900372315971e6
1.0878827991498455e6
1.0936623192025004e6
1.0988843466688378e6
1.103437445461518e6
1.1074957093021865e6
1.110721398373255e6
1.1137014035105428e6
1.1153627372946637e6
1.1177317426366876e6
1.117058554590303e6
1.1207783834144976e6
1.1142264235014473e6
1.1284044883935826e6
99999.99687297331
100000.00493883032
99999.99180970782
100000.0131418629
99999.97839554404
100000.03499696995
99999.94263148906
100000.09352265876
99999.84658220116
100000.25144319308
99999.58612277593
100000.68259753258
99998.86856443563
100001.88632205514
99996.8237952947
100005.42979963828
99990.48432314218
100017.32354568866
99966.62883154719
100069.1548459389
99843.97609861834
100382.6191186712
98999.81883220737
102811.95081230388
92171.25948509335
125729.89123379631
502679.7880464423
925097.0389867366
1.0309442097517676e6
1.0331198096962506e6
1.0433860226888476e6
1.051562179436516e6
1.0592919900954885e6
1.066308106048781e6
1.0726677693214566e6
1.078377992281264e6
1.0834002015536358e6
1.0877730454553978e6
1.091362877405481e6
1.0943066617490803e6
1.0962128578637915e6
1.0975945554099851e6
1.097243903500836e6
1.0971417985981398e6
1.0931842169567163e6
1.0935313556263188e6
1.0819676713771466e6
1.0960555667984716e6
99999.99787072529
100000.00333635637
99999.99440492757
100000.00897132719
99999.98507987997
100000.0243339229
99999.95952906004
100000.0669225509
99999.8880489113
100000.18748335214
99999.68343431808
100000.5367024848
99999.08413437934
100001.5699023816
99997.29692767632
100004.66473751434
99991.94690460378
100013.8441062652
99976.38881650555
100039.42645489716
99935.72649583843
100097.22151874384
99861.70241820325
100139.21543337501
99940.67979455883
99579.27995861479
426353.84462016576
874986.9493881515
1.0234545820671394e6
1.0266820824930281e6
1.0362177983659139e6
1.0439247163853998e6
1.051081581126457e6
1.057474628662522e6
1.0631422789506074e6
1.068084150553415e6
1.0722517146647414e6
1.0756710685877053e6
1.0782014763359106e6
1.0799703025336752e6
1.0806050321542309e6
1.0806323375470922e6
1.0789678117641124e6
1.077593140139726e6
1.0728407596495822e6
1.0722948151335192e6
1.0607328679661679e6
1.0740621232369877e6
99999.99876349379
100000.00186608355
99999.99680874556
100000.0050256995
99999.99153532679
100000.01376621731
99999.97679603881
100000.03874068413
99999.9339560644
100000.11284987319
99999.80451916791
100000.34053393759
99999.4020977822
100001.05186602153
99998.15339045112
100003.20189376362
99994.5994667351
100008.56267438254
99988.1701044632
100010.00391518611
100015.34898135754
99869.29824535981
100530.26569849152
98154.53149545079
106027.60300298018
82450.14611529998
348702.00468364795
811955.2971158517
1.0114830948278353e6
1.0202330281608978e6
1.0285487695811396e6
1.0358100137969424e6
1.0423379347873438e6
1.0480474620303334e6
1.0529439806619124e6
1.0570153018441927e6
1.060190386769975e6
1.0624620924994454e6
1.0636407947862695e6
1.063774693271203e6
1.0623598276516588e6
1.0597155234589418e6
1.054361566707738e6
1.0478506332612495e6
1.0351795080785267e6
1.0245706974292361e6
995186.8269087345
1.001725521543608e6
99999.99954740715
100000.00053380989
99999.99901447106
100000.00131192352
99999.99776523132
100000.00325796397
99999.99456588118
100000.00859213794
99999.985305536
100000.0250889385
99999.95514767292
100000.08093043094
99999.85173158144
100000.26866271804
99999.52773265293
100000.7655588754
99998.98348741575
100000.4935409538
100003.5371891419
99979.29949809775
100080.8717609978
99719.42261455307
100905.09765731488
97189.11772232436
108880.80357536342
75519.3603170054
273469.7895897996
735335.244681673
992424.0744875497
1.0138110125703281e6
1.0204373974237754e6
1.0272680664239519e6
1.0331213610719875e6
1.0380948148532675e6
1.0421550716772713e6
1.0452772574125649e6
1.0473672486947896e6
1.0483857381975199e6
1.0481082152379956e6
1.0465281940444201e6
1.0431159365909371e6
1.0381136977245924e6
1.0301885657473981e6
1.0206991763046725e6
1.0059351534802148e6
991079.5152634247
962932.8773887462
929832.7756396991
100000.0001907465
99999.99941500391
100000.00089103624
99999.99809114412
100000.00328333999
99999.99373530316
100000.01109830367
99999.97974459578
100000.03598892881
99999.93556403271
100000.114277862
99999.796601785
100000.36232606246
99999.34823492693
100001.19111999562
99997.75887719254
100004.40228125684
99990.81062411774
100020.56623777519
99950.34384060379
100127.42001168022
99654.96228290959
100965.64526603062
97264.28981310809
108196.79659039468
77942.8369871179
204685.50420544887
645818.5456360626
963164.7844220701
1.007219795424429e6
1.012012938000087e6
1.0183667805710054e6
1.0235063575244056e6
1.0276941729968202e6
1.0308590884880925e6
1.0329578787027426e6
1.0338643785868504e6
1.0334919629702253e6
1.0315466124161707e6
1.0279029237670959e6
1.0218470414130017e6
1.01322855053734e6
1.0000553881381778e6
982084.4289201165
952580.1368312766
909680.2240466918
824082.8852502548
672537.3668141722
100000.0006492897
99999.99861950737
100000.00224281248
99999.995761757
100000.00732630136
99999.98668979436
100000.02350695117
99999.95778537933
100000.07521118337
99999.86509229887
100000.24183518975
99999.56448812748
100000.78666976637
99998.57079618463
100002.61430567103
99995.16942764704
100009.04769715773
99982.7183731536
100033.88162898918
99931.128994746
100146.17176324246
99672.9056931981
100773.24989344
98086.3588303345
105122.93650144794
86806.45305713809
146589.13003709423
545686.7959857829
920134.0372956177
999639.5499111938
1.0034521873085485e6
1.0091741581476094e6
1.013573549910429e6
1.0169366447144415e6
1.0191661176026224e6
1.0201952799780563e6
1.0198660295279905e6
1.0180410989966928e6
1.0143661949414284e6
1.0086063814450705e6
999910.0277408959
987861.456762399
970174.6317883953
945924.9448671908
908146.4484796148
853473.3213352624
758205.2644008668
602376.9239868141
100000.00089084411
99999.9982328483
100000.00291242296
99999.99465338257
100000.00924382813
99999.98342269546
100000.02921197264
99999.94782182561
100000.09288165298
99999.8335649138
100000.29867049775
99999.46144329805
100000.9743573389
99998.22919733544
100003.23147092602
99994.07650495024
100010.9031116533
99979.84963085389
100037.35503050723
99930.57832142636
100128.9532197435
99760.86086600048
100439.19547443165
99204.5305013011
101411.22375181748
97719.80083047853
103854.4993056861
439319.79975375696
859493.9078671653
989025.6292869321
994884.6306676553
999731.3993348343
1.0033910406193727e6
1.0059105818705411e6
1.0071878352484829e6
1.0071313263432744e6
1.0055509955445986e6
1.0022691949636447e6
996875.6158609911
989054.0237535064
977856.7214216511
962720.297685988
941251.8351170341
912395.8681524273
869573.043778856
810565.4372599387
716334.2826774757
583476.7997284657
100000.00091713625
99999.99826270017
100000.0028765316
99999.99483213887
100000.00887536445
99999.98430142355
100000.027400867
99999.95160200704
100000.08529626756
99999.84872494718
100000.26874735772
99999.52038894162
100000.85836757856
99998.45851617637
100002.77395650212
99995.00391730749
100008.97915152906
99983.97092163659
100028.16935189441
99952.01861852503
100076.43983868197
99895.37603395624
100079.42795008507
100193.42639926793
98586.98120852595
105920.52053327602
80308.33169382114
333662.6741444737
778376.5585604168
971760.3441302013
986282.0069389517
990065.4980219147
993018.7952260624
994704.0941310095
995039.7274645156
993913.9735781925
991112.975837808
986429.5922228493
979416.9423334993
969713.9661779403
956331.1799186751
938680.3015279557
914401.5103619999
882685.4100161567
837500.7049059401
778572.6698705711
690031.5771066218
579294.2471490693
100000.00077200678
99999.99861875456
100000.00228384833
99999.99602197272
100000.00670840572
99999.98843785553
100000.01968276566
99999.966181595
100000.0578614514
99999.90059161666
100000.1705754806
99999.70684316619
100000.50323986486
99999.1373238146
100001.47174848198
99997.51206958783
100004.12780172532
99993.3976515828
100009.76126726904
99988.1617978676
100005.03455875865
100037.48498378327
99794.22108285458
100773.99136214406
97405.08489921609
108460.02414350776
75705.74261233896
237033.61392488403
676826.628469472
943102.7936631386
977414.9416696354
980280.3357477785
982545.4008445954
983420.1859973939
982843.3187595629
980689.7165026095
976733.3881411386
970748.7397772217
962273.4298136628
950935.3954219333
935752.2840681345
916191.2651924664
890029.9720432302
856822.517283011
811240.2079098832
754472.0310900365
673694.1233294144
580010.3568203038
100000.00053101643
99999.99913821935
100000.00141203872
99999.99769056484
100000.00371839023
99999.99399473751
100000.00950625395
99999.98503072323
100000.02298972917
99999.96544783397
100000.04967005712
99999.93310777743
100000.07852800029
99999.93695608526
99999.96291254497
100000.36235548824
99998.74802228926
100003.51109483611
99990.92800631584
100022.58927858966
99944.35118051578
100137.12287714389
99656.8573621391
100871.32977087316
97744.02896755945
106108.2534166334
84312.73432731761
157425.6602663472
558397.5727397965
897539.920455138
967434.3189467628
970578.3594089824
972091.5544570676
972172.898069228
970720.1777910651