# vtk DataFile Version 2.0
JuliaCFD
ASCII
DATASET UNSTRUCTURED_GRID

POINTS 32898 float
0.0 0.0 -0.05
0.0125 0.0 -0.05
0.025 0.0 -0.05
0.0375 0.0 -0.05
0.05 0.0 -0.05
0.0625 0.0 -0.05
0.075 0.0 -0.05
0.0875 0.0 -0.05
0.1 0.0 -0.05
0.1125 0.0 -0.05
0.125 0.0 -0.05
0.1375 0.0 -0.05
0.15 0.0 -0.05
0.1625 0.0 -0.05
0.175 0.0 -0.05
0.1875 0.0 -0.05
0.2 0.0 -0.05
0.2125 0.0 -0.05
0.225 0.0 -0.05
0.2375 0.0 -0.05
0.25 0.0 -0.05
0.2625 0.0 -0.05
0.275 0.0 -0.05
0.2875 0.0 -0.05
0.3 0.0 -0.05
0.3125 0.0 -0.05
0.325 0.0 -0.05
0.3375 0.0 -0.05
0.35 0.0 -0.05
0.3625 0.0 -0.05
0.375 0.0 -0.05
0.3875 0.0 -0.05
0.4 0.0 -0.05
0.4125 0.0 -0.05
0.425 0.0 -0.05
0.4375 0.0 -0.05
0.45 0.0 -0.05
0.4625 0.0 -0.05
0.475 0.0 -0.05
0.4875 0.0 -0.05
0.5 0.0 -0.05
0.5125 0.0 -0.05
0.525 0.0 -0.05
0.5375 0.0 -0.05
0.55 0.0 -0.05
0.5625 0.0 -0.05
0.575 0.0 -0.05
0.5875 0.0 -0.05
0.6 0.0 -0.05
0.0 0.0125 -0.05
0.0125 0.0125 -0.05
0.025 0.0125 -0.05
0.0375 0.0125 -0.05
0.05 0.0125 -0.05
0.0625 0.0125 -0.05
0.075 0.0125 -0.05
0.0875 0.0125 -0.05
0.1 0.0125 -0.05
0.1125 0.0125 -0.05
0.125 0.0125 -0.05
0.1375 0.0125 -0.05
0.15 0.0125 -0.05
0.1625 0.0125 -0.05
0.175 0.0125 -0.05
0.1875 0.0125 -0.05
0.2 0.0125 -0.05
0.2125 0.0125 -0.05
0.225 0.0125 -0.05
0.2375 0.0125 -0.05
0.25 0.0125 -0.05
0.2625 0.0125 -0.05
0.275 0.0125 -0.05
0.2875 0.0125 -0.05
0.3 0.0125 -0.05
0.3125 0.0125 -0.05
0.325 0.0125 -0.05
0.3375 0.0125 -0.05
0.35 0.0125 -0.05
0.3625 0.0125 -0.05
0.375 0.0125 -0.05
0.3875 0.0125 -0.05
0.4 0.0125 -0.05
0.4125 0.0125 -0.05
0.425 0.0125 -0.05
0.4375 0.0125 -0.05
0.45 0.0125 -0.05
0.4625 0.0125 -0.05
0.475 0.0125 -0.05
0.4875 0.0125 -0.05
0.5 0.0125 -0.05
0.5125 0.0125 -0.05
0.525 0.0125 -0.05
0.5375 0.0125 -0.05
0.55 0.0125 -0.05
0.5625 0.0125 -0.05
0.575 0.0125 -0.05
0.5875 0.0125 -0.05
0.6 0.0125 -0.05
0.0 0.025 -0.05
0.0125 0.025 -0.05
0.025 0.025 -0.05
0.0375 0.025 -0.05
0.05 0.025 -0.05
0.0625 0.025 -0.05
0.075 0.025 -0.05
0.0875 0.025 -0.05
0.1 0.025 -0.05
0.1125 0.025 -0.05
0.125 0.025 -0.05
0.1375 0.025 -0.05
0.15 0.025 -0.05
0.1625 0.025 -0.05
0.175 0.025 -0.05
0.1875 0.025 -0.05
0.2 0.025 -0.05
0.2125 0.025 -0.05
0.225 0.025 -0.05
0.2375 0.025 -0.05
0.25 0.025 -0.05
0.2625 0.025 -0.05
0.275 0.025 -0.05
0.2875 0.025 -0.05
0.3 0.025 -0.05
0.3125 0.025 -0.05
0.325 0.025 -0.05
0.3375 0.025 -0.05
0.35 0.025 -0.05
0.3625 0.025 -0.05
0.375 0.025 -0.05
0.3875 0.025 -0.05
0.4 0.025 -0.05
0.4125 0.025 -0.05
0.425 0.025 -0.05
0.4375 0.025 -0.05
0.45 0.025 -0.05
0.4625 0.025 -0.05
0.475 0.025 -0.05
0.4875 0.025 -0.05
0.5 0.025 -0.05
0.5125 0.025 -0.05
0.525 0.025 -0.05
0.5375 0.025 -0.05
0.55 0.025 -0.05
0.5625 0.025 -0.05
0.575 0.025 -0.05
0.5875 0.025 -0.05
0.6 0.025 -0.05
0.0 0.0375 -0.05
0.0125 0.0375 -0.05
0.025 0.0375 -0.05
0.0375 0.0375 -0.05
0.05 0.0375 -0.05
0.0625 0.0375 -0.05
0.075 0.0375 -0.05
0.0875 0.0375 -0.05
0.1 0.0375 -0.05
0.1125 0.0375 -0.05
0.125 0.0375 -0.05
0.1375 0.0375 -0.05
0.15 0.0375 -0.05
0.1625 0.0375 -0.05
0.175 0.0375 -0.05
0.1875 0.0375 -0.05
0.2 0.0375 -0.05
0.2125 0.0375 -0.05
0.225 0.0375 -0.05
0.2375 0.0375 -0.05
0.25 0.0375 -0.05
0.2625 0.0375 -0.05
0.275 0.0375 -0.05
0.2875 0.0375 -0.05
0.3 0.0375 -0.05
0.3125 0.0375 -0.05
0.325 0.0375 -0.05
0.3375 0.0375 -0.05
0.35 0.0375 -0.05
0.3625 0.0375 -0.05
0.375 0.0375 -0.05
0.3875 0.0375 -0.05
0.4 0.0375 -0.05
0.4125 0.0375 -0.05
0.425 0.0375 -0.05
0.4375 0.0375 -0.05
0.45 0.0375 -0.05
0.4625 0.0375 -0.05
0.475 0.0375 -0.05
0.4875 0.0375 -0.05
0.5 0.0375 -0.05
0.5125 0.0375 -0.05
0.525 0.0375 -0.05
0.5375 0.0375 -0.05
0.55 0.0375 -0.05
0.5625 0.0375 -0.05
0.575 0.0375 -0.05
0.5875 0.0375 -0.05
0.6 0.0375 -0.05
0.0 0.05 -0.05
0.0125 0.05 -0.05
0.025 0.05 -0.05
0.0375 0.05 -0.05
0.05 0.05 -0.05
0.0625 0.05 -0.05
0.075 0.05 -0.05
0.0875 0.05 -0.05
0.1 0.05 -0.05
0.1125 0.05 -0.05
0.125 0.05 -0.05
0.1375 0.05 -0.05
0.15 0.05 -0.05
0.1625 0.05 -0.05
0.175 0.05 -0.05
0.1875 0.05 -0.05
0.2 0.05 -0.05
0.2125 0.05 -0.05
0.225 0.05 -0.05
0.2375 0.05 -0.05
0.25 0.05 -0.05
0.2625 0.05 -0.05
0.275 0.05 -0.05
0.2875 0.05 -0.05
0.3 0.05 -0.05
0.3125 0.05 -0.05
0.325 0.05 -0.05
0.3375 0.05 -0.05
0.35 0.05 -0.05
0.3625 0.05 -0.05
0.375 0.05 -0.05
0.3875 0.05 -0.05
0.4 0.05 -0.05
0.4125 0.05 -0.05
0.425 0.05 -0.05
0.4375 0.05 -0.05
0.45 0.05 -0.05
0.4625 0.05 -0.05
0.475 0.05 -0.05
0.4875 0.05 -0.05
0.5 0.05 -0.05
0.5125 0.05 -0.05
0.525 0.05 -0.05
0.5375 0.05 -0.05
0.55 0.05 -0.05
0.5625 0.05 -0.05
0.575 0.05 -0.05
0.5875 0.05 -0.05
0.6 0.05 -0.05
0.0 0.0625 -0.05
0.0125 0.0625 -0.05
0.025 0.0625 -0.05
0.0375 0.0625 -0.05
0.05 0.0625 -0.05
0.0625 0.0625 -0.05
0.075 0.0625 -0.05
0.0875 0.0625 -0.05
0.1 0.0625 -0.05
0.1125 0.0625 -0.05
0.125 0.0625 -0.05
0.1375 0.0625 -0.05
0.15 0.0625 -0.05
0.1625 0.0625 -0.05
0.175 0.0625 -0.05
0.1875 0.0625 -0.05
0.2 0.0625 -0.05
0.2125 0.0625 -0.05
0.225 0.0625 -0.05
0.2375 0.0625 -0.05
0.25 0.0625 -0.05
0.2625 0.0625 -0.05
0.275 0.0625 -0.05
0.2875 0.0625 -0.05
0.3 0.0625 -0.05
0.3125 0.0625 -0.05
0.325 0.0625 -0.05
0.3375 0.0625 -0.05
0.35 0.0625 -0.05
0.3625 0.0625 -0.05
0.375 0.0625 -0.05
0.3875 0.0625 -0.05
0.4 0.0625 -0.05
0.4125 0.0625 -0.05
0.425 0.0625 -0.05
0.4375 0.0625 -0.05
0.45 0.0625 -0.05
0.4625 0.0625 -0.05
0.475 0.0625 -0.05
0.4875 0.0625 -0.05
0.5 0.0625 -0.05
0.5125 0.0625 -0.05
0.525 0.0625 -0.05
0.5375 0.0625 -0.05
0.55 0.0625 -0.05
0.5625 0.0625 -0.05
0.575 0.0625 -0.05
0.5875 0.0625 -0.05
0.6 0.0625 -0.05
0.0 0.075 -0.05
0.0125 0.075 -0.05
0.025 0.075 -0.05
0.0375 0.075 -0.05
0.05 0.075 -0.05
0.0625 0.075 -0.05
0.075 0.075 -0.05
0.0875 0.075 -0.05
0.1 0.075 -0.05
0.1125 0.075 -0.05
0.125 0.075 -0.05
0.1375 0.075 -0.05
0.15 0.075 -0.05
0.1625 0.075 -0.05
0.175 0.075 -0.05
0.1875 0.075 -0.05
0.2 0.075 -0.05
0.2125 0.075 -0.05
0.225 0.075 -0.05
0.2375 0.075 -0.05
0.25 0.075 -0.05
0.2625 0.075 -0.05
0.275 0.075 -0.05
0.2875 0.075 -0.05
0.3 0.075 -0.05
0.3125 0.075 -0.05
0.325 0.075 -0.05
0.3375 0.075 -0.05
0.35 0.075 -0.05
0.3625 0.075 -0.05
0.375 0.075 -0.05
0.3875 0.075 -0.05
0.4 0.075 -0.05
0.4125 0.075 -0.05
0.425 0.075 -0.05
0.4375 0.075 -0.05
0.45 0.075 -0.05
0.4625 0.075 -0.05
0.475 0.075 -0.05
0.4875 0.075 -0.05
0.5 0.075 -0.05
0.5125 0.075 -0.05
0.525 0.075 -0.05
0.5375 0.075 -0.05
0.55 0.075 -0.05
0.5625 0.075 -0.05
0.575 0.075 -0.05
0.5875 0.075 -0.05
0.6 0.075 -0.05
0.0 0.0875 -0.05
0.0125 0.0875 -0.05
0.025 0.0875 -0.05
0.0375 0.0875 -0.05
0.05 0.0875 -0.05
0.0625 0.0875 -0.05
0.075 0.0875 -0.05
0.0875 0.0875 -0.05
0.1 0.0875 -0.05
0.1125 0.0875 -0.05
0.125 0.0875 -0.05
0.1375 0.0875 -0.05
0.15 0.0875 -0.05
0.1625 0.0875 -0.05
0.175 0.0875 -0.05
0.1875 0.0875 -0.05
0.2 0.0875 -0.05
0.2125 0.0875 -0.05
0.225 0.0875 -0.05
0.2375 0.0875 -0.05
0.25 0.0875 -0.05
0.2625 0.0875 -0.05
0.275 0.0875 -0.05
0.2875 0.0875 -0.05
0.3 0.0875 -0.05
0.3125 0.0875 -0.05
0.325 0.0875 -0.05
0.3375 0.0875 -0.05
0.35 0.0875 -0.05
0.3625 0.0875 -0.05
0.375 0.0875 -0.05
0.3875 0.0875 -0.05
0.4 0.0875 -0.05
0.4125 0.0875 -0.05
0.425 0.0875 -0.05
0.4375 0.0875 -0.05
0.45 0.0875 -0.05
0.4625 0.0875 -0.05
0.475 0.0875 -0.05
0.4875 0.0875 -0.05
0.5 0.0875 -0.05
0.5125 0.0875 -0.05
0.525 0.0875 -0.05
0.5375 0.0875 -0.05
0.55 0.0875 -0.05
0.5625 0.0875 -0.05
0.575 0.0875 -0.05
0.5875 0.0875 -0.05
0.6 0.0875 -0.05
0.0 0.1 -0.05
0.0125 0.1 -0.05
0.025 0.1 -0.05
0.0375 0.1 -0.05
0.05 0.1 -0.05
0.0625 0.1 -0.05
0.075 0.1 -0.05
0.0875 0.1 -0.05
0.1 0.1 -0.05
0.1125 0.1 -0.05
0.125 0.1 -0.05
0.1375 0.1 -0.05
0.15 0.1 -0.05
0.1625 0.1 -0.05
0.175 0.1 -0.05
0.1875 0.1 -0.05
0.2 0.1 -0.05
0.2125 0.1 -0.05
0.225 0.1 -0.05
0.2375 0.1 -0.05
0.25 0.1 -0.05
0.2625 0.1 -0.05
0.275 0.1 -0.05
0.2875 0.1 -0.05
0.3 0.1 -0.05
0.3125 0.1 -0.05
0.325 0.1 -0.05
0.3375 0.1 -0.05
0.35 0.1 -0.05
0.3625 0.1 -0.05
0.375 0.1 -0.05
0.3875 0.1 -0.05
0.4 0.1 -0.05
0.4125 0.1 -0.05
0.425 0.1 -0.05
0.4375 0.1 -0.05
0.45 0.1 -0.05
0.4625 0.1 -0.05
0.475 0.1 -0.05
0.4875 0.1 -0.05
0.5 0.1 -0.05
0.5125 0.1 -0.05
0.525 0.1 -0.05
0.5375 0.1 -0.05
0.55 0.1 -0.05
0.5625 0.1 -0.05
0.575 0.1 -0.05
0.5875 0.1 -0.05
0.6 0.1 -0.05
0.0 0.1125 -0.05
0.0125 0.1125 -0.05
0.025 0.1125 -0.05
0.0375 0.1125 -0.05
0.05 0.1125 -0.05
0.0625 0.1125 -0.05
0.075 0.1125 -0.05
0.0875 0.1125 -0.05
0.1 0.1125 -0.05
0.1125 0.1125 -0.05
0.125 0.1125 -0.05
0.1375 0.1125 -0.05
0.15 0.1125 -0.05
0.1625 0.1125 -0.05
0.175 0.1125 -0.05
0.1875 0.1125 -0.05
0.2 0.1125 -0.05
0.2125 0.1125 -0.05
0.225 0.1125 -0.05
0.2375 0.1125 -0.05
0.25 0.1125 -0.05
0.2625 0.1125 -0.05
0.275 0.1125 -0.05
0.2875 0.1125 -0.05
0.3 0.1125 -0.05
0.3125 0.1125 -0.05
0.325 0.1125 -0.05
0.3375 0.1125 -0.05
0.35 0.1125 -0.05
0.3625 0.1125 -0.05
0.375 0.1125 -0.05
0.3875 0.1125 -0.05
0.4 0.1125 -0.05
0.4125 0.1125 -0.05
0.425 0.1125 -0.05
0.4375 0.1125 -0.05
0.45 0.1125 -0.05
0.4625 0.1125 -0.05
0.475 0.1125 -0.05
0.4875 0.1125 -0.05
0.5 0.1125 -0.05
0.5125 0.1125 -0.05
0.525 0.1125 -0.05
0.5375 0.1125 -0.05
0.55 0.1125 -0.05
0.5625 0.1125 -0.05
0.575 0.1125 -0.05
0.5875 0.1125 -0.05
0.6 0.1125 -0.05
0.0 0.125 -0.05
0.0125 0.125 -0.05
0.025 0.125 -0.05
0.0375 0.125 -0.05
0.05 0.125 -0.05
0.0625 0.125 -0.05
0.075 0.125 -0.05
0.0875 0.125 -0.05
0.1 0.125 -0.05
0.1125 0.125 -0.05
0.125 0.125 -0.05
0.1375 0.125 -0.05
0.15 0.125 -0.05
0.1625 0.125 -0.05
0.175 0.125 -0.05
0.1875 0.125 -0.05
0.2 0.125 -0.05
0.2125 0.125 -0.05
0.225 0.125 -0.05
0.2375 0.125 -0.05
0.25 0.125 -0.05
0.2625 0.125 -0.05
0.275 0.125 -0.05
0.2875 0.125 -0.05
0.3 0.125 -0.05
0.3125 0.125 -0.05
0.325 0.125 -0.05
0.3375 0.125 -0.05
0.35 0.125 -0.05
0.3625 0.125 -0.05
0.375 0.125 -0.05
0.3875 0.125 -0.05
0.4 0.125 -0.05
0.4125 0.125 -0.05
0.425 0.125 -0.05
0.4375 0.125 -0.05
0.45 0.125 -0.05
0.4625 0.125 -0.05
0.475 0.125 -0.05
0.4875 0.125 -0.05
0.5 0.125 -0.05
0.5125 0.125 -0.05
0.525 0.125 -0.05
0.5375 0.125 -0.05
0.55 0.125 -0.05
0.5625 0.125 -0.05
0.575 0.125 -0.05
0.5875 0.125 -0.05
0.6 0.125 -0.05
0.0 0.1375 -0.05
0.0125 0.1375 -0.05
0.025 0.1375 -0.05
0.0375 0.1375 -0.05
0.05 0.1375 -0.05
0.0625 0.1375 -0.05
0.075 0.1375 -0.05
0.0875 0.1375 -0.05
[...]
CELL_DATA 16128
SCALARS P float 1
LOOKUP_TABLE default
99999.99309331128
100000.01078918875
99999.98243660934
100000.0278339374
99999.95531269211
100000.07099504302
99999.88700858213
100000.17873498758
99999.71842347439
100000.43990739646
99999.32105041966
100001.0263497049
99998.50584158426
100002.01613201918
99997.74696996965
100001.0214231844
100005.35588535086
99972.25301663262
100097.8275912584
99695.16353929999
100915.13688407996
97388.98410938133
107877.79591091454
79190.7125454239
189612.7878143276
631608.6750918633
1.0048580363442801e6
1.0534394034833254e6
1.0582829415694296e6
1.0716158329128942e6
1.082437890520077e6
1.0933870026866647e6
1.1037382242701885e6
1.1136977300535196e6
1.1231865894631373e6
1.1322437720088724e6
1.140807524378177e6
1.1489368673895015e6
1.1564756665562838e6
1.1636164943014975e6
1.1699290406408967e6
1.1760485452277712e6
1.180738808729211e6
1.1860212851501028e6
1.1882145098154524e6
1.1936279287271784e6
1.1910636705629537e6
1.20004401018517e6
99999.9932354663
100000.0105663
99999.9829041757
100000.02700194289
99999.95691530718
100000.06804984195
99999.89249036589
100000.16869989976
99999.73666030193
100000.40721946314
99999.37867020859
100000.92694108518
99998.6722769739
100001.74916125652
99998.14725517105
100000.49199478414
100005.870882206
99972.3276077199
100095.48690257472
99704.31950748521
100887.72001026935
97459.91547239416
107688.02680943863
79560.78911258631
187339.8880382096
628773.0012419198
1.0066013993098077e6
1.0580556917467255e6
1.0632667399846998e6
1.0770306502730262e6
1.0880266135999362e6
1.0990969639667496e6
1.1095377182938624e6
1.1195830863281223e6
1.1291622869956878e6
1.1383176670723169e6
1.1469870542459306e6
1.1552277235132987e6
1.1628801513809199e6
1.17013383927291e6
1.1765526023977257e6
1.1827694340181062e6
1.1875370240280102e6
1.1928830921485408e6
1.1950960712629978e6
1.2005371081016515e6
1.1978838166216572e6
1.2069634097885387e6
99999.99295303527
100000.01116743803
99999.9818948985
100000.0289242587
99999.95349772237
100000.07434372739
99999.88110877674
100000.18946980702
99999.69891199181
100000.47598977239
99999.25341699476
100001.15536235749
99998.2551493236
100002.51282938887
99996.74352185363
100003.09041849728
100001.00879567674
99981.58797891035
100077.3780273445
99740.94151517146
100809.02360260216
97630.8946098332
107245.39297503703
80482.69308830728
180833.62224608773
616679.7984909373
999398.4619578201
1.0550680035592515e6
1.0593177227971302e6
1.0729199434791699e6
1.0836817815326871e6
1.0945745814305504e6
1.1048455294551055e6
1.1147238161748997e6
1.1241328025990566e6
1.1331130604974502e6
1.1416037118261245e6
1.1496628801513165e6
1.1571357797168207e6
1.1642122799455973e6
1.1704654578311797e6
1.1765244421217504e6
1.181159494181049e6
1.1863854028232598e6
1.1885149661148232e6
1.1939044141709052e6
1.1911729415248588e6
1.2004087475215546e6
99999.9925956597
100000.01194233254
99999.98060046554
100000.0313926821
99999.9491180975
100000.082384774
99999.86662492946
100000.21575596574
99999.65144673706
100000.56179863903
99999.09846012204
100001.4353945602
99997.7483448976
100003.43336744192
99995.060317386
100006.20458257014
99995.13883854928
99992.97281413055
100054.38348838994
99789.62166274649
100698.30786947589
97886.57130241637
106550.86931045429
82013.47760978062
171368.95040552333
599732.0024685854
991968.9789796936
1.055297963230286e6
1.0588082979412163e6
1.0726883092613958e6
1.0834792004181924e6
1.0944012597711806e6
1.104673687332923e6
1.1145444639011421e6
1.1239435222444404e6
1.1329163799324867e6
1.1414063412634132e6
1.1494727774711533e6
1.15696421582822e6
1.1640682950296667e6
1.1703625167054166e6
1.176467883652517e6
1.1811611430166482e6
1.1864435209745609e6
1.1886224568390802e6
1.1940822464197974e6
1.1912887512997345e6
1.2007767591826804e6
99999.99226230333
100000.01268307847
99999.97936796957
100000.03375871135
99999.94491950027
100000.09010523268
99999.85272038572
100000.24098393408
99999.60592143823
100000.64406390912
99998.94986961239
100001.70436784896
99997.25948737118
100004.32868008548
99993.39931948701
100009.34867777953
99989.00727863918
100005.41675437758
100027.78549107807
99849.43837127138
100554.24783204049
98236.9879749465
105570.8860218036
84284.52061719508
159170.27668849257
576281.9382902675
980097.1461892034
1.0538279478390978e6
1.0560067636348028e6
1.0698596111080328e6
1.0804215591880293e6
1.0911540661550541e6
1.1012339755931692e6
1.1109121150577273e6
1.1201173888558769e6
1.1288945462655167e6
1.1371888325856822e6
1.1450594535239981e6
1.152359449145991e6
1.1592743192252598e6
1.1653906953413608e6
1.1713215109247037e6
1.1758607749008783e6
1.1809952082767165e6
1.1830459197519398e6
1.1884302215187582e6
1.185458495035134e6
1.195207448396225e6
99999.99205317178
100000.01318101482
99999.9785434305
100000.03537848135
99999.94202958282
100000.09547649599
99999.84298693834
100000.25877281962
99999.57360344073
100000.70294552136
99998.84240831604
100001.90167553014
99996.89362409148
100005.0178602656
99992.06969442208
100011.998682176
99983.49197379946
100017.46608858884
99999.94404558389
99916.6431226812
100382.30417752778
98676.8390832787
104313.34528632066
87353.41862614448
145039.70065300103
547015.8544489018
964653.9432835615
1.0525885395961225e6
1.0535140563928e6
1.067460335118868e6
1.0779002065207525e6
1.0885219239095203e6
1.098477134197012e6
1.1080217784337886e6
1.1170900513298234e6
1.1257293922260895e6
1.1338902105241825e6
1.1416336938298214e6
1.1488194700532602e6
1.1556320424082254e6
1.1616683261869303e6
1.1675329249079556e6
1.1720347211383705e6
1.1771447636955536e6
1.1791811413439235e6
1.1846093263872343e6
1.1815099414989674e6
1.1916345249342318e6
99999.9920398283
100000.0132882186
99999.97837039451
100000.03580023922
99999.94123612203
100000.09708303143
99999.83993153175
100000.26465456121
99999.56243428464
100000.72430780927
99998.80124736832
100001.9824248649
99996.73101928366
100005.35686808072
99991.33140113555
100013.68178302626
99979.46182459506
100027.50415113878
99973.90428040466
99985.49845128116
100193.55896853791
99186.67860822333
102825.34783881134
91202.17874071587
129763.3289478555
511879.45814249944
944312.0212747409
1.0504957555580498e6
1.0502299206415568e6
1.0640864496703232e6
1.0743078489981366e6
1.0847061814722593e6
1.0944334472003626e6
1.1037398561379546e6
1.112564131996894e6
1.120953176501924e6
1.1288606534866965e6
1.1363475246561836e6
1.1432783546085584e6
1.1498343933603242e6
1.1556217394045768e6
1.1612353177802323e6
1.1655005675257063e6
1.1703789326753411e6
1.1721905812035017e6
1.1774869642976874e6
1.174080686927615e6
1.1845994187368953e6
99999.99224888292
100000.01295125348
99999.97893485786
100000.03486765051
99999.94280796661
100000.09444474734
99999.84440657926
100000.25708866291
99999.57522527176
100000.70293780917
99998.8362079947
100001.92778131891
99996.80848635637
100005.2723803296
99991.33355437694
100014.08904960346
99977.5715690136
100034.1197784191
99952.79133700117
100049.01499124998
100004.45097769676
99729.46523404759
101209.53256355887
95652.93485139629
114357.71371774147
471318.35162302665
918446.967247765
1.0475777766008677e6
1.0467080322686766e6
1.0603499885523445e6
1.0703865632526549e6
1.0805533735385106e6
1.0900482140415937e6
1.0991057633341732e6
1.1076731034107765e6
1.115797389741168e6
1.123437694970767e6
1.1306572584338542e6
1.1373292649997885e6
1.1436363632043924e6
1.1491999108579445e6
1.1546114377426326e6
1.1587181389414475e6
1.1634747142216172e6
1.1651921909165063e6
1.1705096133392332e6
1.166889078589788e6
1.1779620024921545e6
99999.99265883815
100000.01221847524
99999.98015265257
100000.032745504
99999.94644531937
100000.08811778731
99999.85540531363
100000.23788367168
99999.60878332671
100000.64436583758
99998.93796076851
100001.7528917377
99997.10292001345
100004.79577638689
99992.04495122883
100013.21520568531
99977.98654282695
100036.63128662064
99938.85649099742
100100.577235684
99834.22877526426
100252.73494871537
99620.63680198924
100327.51465447745
99985.0850434963
425924.86375971936
886031.4174630133
1.0431743516483e6
1.0428333867801497e6
1.0559750955278901e6
1.0658116760751694e6
1.07567472379802e6
1.084871901833907e6
1.0936077084772268e6
1.1018390346671173e6
1.1096104090688957e6
1.1168835044629034e6
1.1237198067671985e6
1.129995368554637e6
1.1358872243393317e6
1.1410217718371325e6
1.145979256384361e6
1.149615650585035e6
1.1538887349924063e6
1.1550896685607086e6
1.1600405405694412e6
1.1557770278544745e6
1.1673874170457867e6
99999.99321123089
100000.01121773961
99999.98180589998
100000.02985337877
99999.95139044782
100000.07950633249
99999.87036693201
100000.21171582042
99999.65462511434
100000.56390102449
99999.07908740248
100001.50636280012
99997.52940136271
100004.07221116014
99993.22645923392
100011.42998718913
99980.21179313018
100035.47079379104
99932.630928856
100135.7125427935
99701.15479036416
100695.51876987042
98247.12837551125
104642.42794877403
87927.18366307212
376677.406345164
846136.4643493327
1.036576027495265e6
1.0387946362768123e6
1.0510729394096641e6
1.060737540734397e6
1.070252347512479e6
1.0791146204005796e6
1.0874837238156316e6
1.095329470393142e6
1.1026938858102239e6
1.1095431157356978e6
1.1159403938655867e6
1.1217709847498888e6
1.1272163602249506e6
1.1319235639083677e6
1.136479747007684e6
1.1397747632776888e6
1.143778300725186e6
1.1447754107406323e6
1.1497170139367615e6
1.1451429363413604e6
1.157584531150561e6
99999.99383289459
100000.01010934963
99999.98362177757
100000.02671691768
99999.95668935432
100000.07038933398
99999.88601416438
100000.18464692502
99999.7015699597
100000.48213757024
99999.2217628081
100001.2573577257
99997.96232772227
100003.32728231754
99994.48022584399
100009.4139010211
99983.14937392308
100032.21380953293
99932.53268907333
100153.56118855331
99617.76784111
101001.39750186085
97274.18891738275
107894.7066828962
79436.27882895067
324932.22002359445
797872.8381631027
1.0266781508614094e6
1.0346597235654498e6
1.0456033828805054e6
1.0551166634955879e6
1.0642223415353077e6
1.07269261168173e6
1.0806270113043312e6
1.0880083141510356e6
1.0948721981849442e6
1.101183625358392e6
1.106999206989252e6
1.1121993555496545e6
1.1169513493886276e6
1.1208910238989189e6
1.1245819508512737e6
1.1268895582973103e6
1.1297957375564463e6
1.129498461123992e6
1.1333273813171452e6
1.1271133011737731e6
1.1401508563109245e6
99999.99446213672
100000.00902828616
99999.9853708295
100000.02377783696
99999.9615365713
100000.06227723933
99999.89953764087
100000.16193555709
99999.73977246314
100000.41753642046
99999.33136605452
100001.07072267911
99998.2806132293
100002.78561409649
99995.39424224582
100007.90722984695
99985.51591348943
100028.93318877525
99935.69103294681
100156.34479318949
99588.9984650914
101130.20552580702
96846.98254224651
109413.34170670382
75498.78676452498
272450.99855480914
740627.2476456361
1.0120539706982805e6
1.0304965150649889e6
1.0396097956878316e6
1.0489921647839043e6
1.0576376530593273e6
1.0656647075861893e6
1.073104450399232e6
1.0799530101693128e6
1.0862398735683383e6
1.0919304444079092e6
1.097079393589105e6
1.1015729968406952e6
1.1055828683526935e6
1.1087700701977257e6
1.1117174682087903e6
1.1133535831878346e6
1.1156951589677122e6
1.1150039855988445e6
1.1186973001251908e6
1.1121370288240889e6
1.1262830802576987e6
99999.99506920372
100000.00803672514
99999.98694913204
100000.02123140644
99999.96557873771
100000.05583014409
99999.90970194056
100000.14592577165
99999.76475046309
100000.37874103166
99999.39112539036
100000.97914359858
99998.42041425814
100002.57172016604
99995.72670262217
100007.37364524123
99986.43745865731
100027.20783130502
99939.40606014151
100147.91706490902
99610.97600421227
101074.81087110622
97003.85872166009
108967.32769873114
76448.87099137917
221290.54629143406
674236.4618950752
990926.4787865625
1.0262412761566889e6
1.0331446606963759e6
1.0423778084308133e6
1.0505129940704955e6
1.0580372235254673e6
1.064912692314116e6
1.0711437577781943e6
1.0767484128762346e6
1.081682536727804e6
1.0859835544612112e6
1.0895155888000433e6
1.0924131637817915e6
1.0942835912471793e6
1.0956360305711825e6
1.0952644352104785e6
1.0951420100905648e6
1.0911722641693428e6
1.091496889912348e6
1.0799333848894967e6
1.0939830822037042e6
99999.99566252965
100000.00710721526
99999.98840866372
100000.01896288604
99999.96904174695
100000.05059934995
99999.91737022292
100000.13498233765
99999.77954595412
100000.36020300313
99999.41094992038
100000.96540267489
99998.41056628685
100002.63990278855
99995.54306292669
100007.73764722256
99985.93993974259
100027.25362738803
99942.58439825352
100131.86095247259
99672.5120216285
100866.60034690567
97652.37413992433
106852.74546017314
81781.72653646166
173805.6106973048
599208.4334463298
961207.731104198
1.0215825583131603e6
1.0263117944271832e6
1.0353040585465273e6
1.0428901306597326e6
1.049853237410621e6
1.0561007616821157e6
1.0616394003029885e6
1.066475324327699e6
1.070555384877816e6
1.0739041330888206e6
1.076378523886934e6
1.078103402602312e6
1.078704804440261e6
1.0787056436848023e6
1.077021656881123e6
1.0756273798232442e6
1.07086095265772e6
1.0702893239912626e6
1.058722188295723e6
1.0720106039952785e6
99999.99627728977
100000.00614663742
99999.98991725268
100000.01662277304
99999.97260044332
100000.04525825585
99999.92510908493
100000.12415785732
99999.79363489308
100000.34389156719
99999.42492129275
100000.96563823897
99998.36943526409
100002.77413631833
99995.22847995578
100008.33737489386
99985.08581399477
100027.58289237622
99946.55735798756
100109.72942356602
99759.07031782185
100567.35618221124
98591.55206388715
103787.46149605888
90070.6496815034
132728.18104945595
516973.4231813227
920557.7875168935
1.0157369367368808e6
1.0192454501711942e6
1.0277914253660031e6
1.0348041683437569e6
1.0411477435774993e6
1.0467037139062233e6
1.0514697835904662e6
1.055434408366297e6
1.0585226432499788e6
1.060725331479074e6
1.0618505725281413e6
1.0619441695142856e6
1.0605008558348068e6
1.0578369284237756e6
1.052472984291605e6
1.0459551162418015e6
1.033288925593387e6
1.0226731883275975e6
993317.0385610395
999810.8466492457
99999.99695033702
100000.00505370507
99999.9916592791
100000.01382218786
99999.97701787716
100000.03828474815
99999.93591500091
100000.10757136608
99999.81850728663
100000.30746747696
99999.47627281054
100000.8967061078
99998.45566397258
100002.6752071631
99995.33760189406
100008.17303702977
99985.59281333913
100025.50841762027
99954.67728124392
100080.46916714107
99857.35629511885
100248.70493680345
99572.84486855187
100691.53718463024
99004.56462584056
101116.54523605671
430193.7919060988
866578.3631351813
1.0071766015479885e6
1.0120805483459432e6
1.0198555180907227e6
1.026294108971385e6
1.0319696437035444e6
1.0367823685323889e6
1.0407117829511688e6
1.0437278241041189e6
1.0457328533038568e6
1.0466852290531467e6
1.0463579394429477e6
1.0447424748645927e6
1.0413076007521749e6
1.0362923358533428e6
1.0283637871216349e6
1.0188734214265101e6
1.0041153210679399e6
989254.6350762384
961118.621933924
928052.2952501657
99999.99769240245
100000.00378557497
99999.993718712
100000.01036770186
99999.98270023549
100000.02882383998
99999.95155633942
100000.08160101606
99999.86152773847
100000.23606966845
99999.59480963525
100000.69926855636
99998.78639328467
100002.11456333226
99996.3089150948
100006.42583701297
99988.92404839481
100018.63201693875
99970.20919341061
100042.16385637857
99958.25780128852
99968.64109148108
100368.86530444877
98373.29785458776
105906.3579759069
81682.913977809
342942.7175873701
797382.7679476041
993445.5621508021
1.0048937755066666e6
1.0115168143598067e6
1.0174010984843377e6
1.0223736516012949e6
1.0264018825417532e6
1.0294400314778925e6
1.0314367021330758e6
1.0322628980746552e6
1.0318294311519382e6
1.0298404786841471e6
1.026168513500894e6
1.0200989316492577e6
1.0114790339109536e6
998318.8680948263
980371.412065653
950914.785004456
908075.5811115784
822625.0401406734
671288.4625827017
99999.99847104886
100000.00240106967
99999.99600139726
100000.00642129753
99999.98938411674
100000.01731093982
99999.97133696104
100000.04734210434
99999.9210457199
100000.13204284504
99999.77756019954
100000.37622595528
99999.3611282655
100001.08438185716
99998.17140429537
100003.02300839481
99995.22364639101
100006.76631649738
99993.07195646071
99996.77613655492
100051.92228790064
99766.63835935108
100831.37516402914
97285.06748506731
108783.68262977814
75280.97296237502
260248.06565037245
712523.7876894637
971302.6097685074
997649.1443207354
1.0028502859395309e6
1.0081894051226284e6
1.0124360376975039e6
1.0156504924128402e6
1.0177614208536218e6
1.0186956961607708e6
1.0182933556474037e6
1.0164150942119466e6
1.0127050224451494e6
1.0069265640476147e6
998227.8858825215
986191.7054919607
968535.5864138571
944331.1264993156
906629.7069629516
852047.6311865675
756962.7765397121
601343.3944862651
99999.99921392999
100000.0010557181
99999.99824130964
100000.00249275587
99999.99613903993
100000.00548805331
99999.99201792954
100000.01085148813
99999.98572768868
100000.0166303005
99999.98467160153
100000.00236006266
100000.0396179476
99999.84728470116
100000.43484747889
99998.8751635866
100002.81403432765
99992.96550439807
100017.81004908621
99953.764262533
100122.58272483184
99666.00473820977
100925.51940080151
97413.41079933253
107579.94790497924
79751.93503134715
187222.27102757798
613519.8820737433
936976.2754453022
989994.0012726936
994016.4749345223
998750.0175991934
1.0022513534449388e6
1.0046310209020386e6
1.0057953285328177e6
1.0056502188181607e6
1.0040038206106802e6
1.0006770444167154e6
995257.7073455749
987428.1252422627
976240.7621083191
961130.8017731565
939709.7635834564
910917.5622393902
868193.5254112587
809296.0255367183
715259.0951417597
582588.5421062759
99999.99983253685
99999.99994642123
100000.0000962797
99999.99925015861
100000.00172098893
99999.99572792454
100000.00909747985
99999.98071800887
100000.03916035627
99999.9212688638
100000.15583042137
99999.6934846142
100000.59949497927
99998.82949054832
100002.28566652366
99995.52301297279
100008.81826030127
99982.46899002614
100035.2912668794
99927.65889173704
100151.45606196724
99673.72737278535
100724.50359833945
98340.9096574037
104029.16636785494
90459.31586671143
129090.83768250918
504030.8426211877
886167.6831842915
980655.0342935742
985185.5692334485
989162.874730977
991909.3781935093
993446.9652283934
993666.671315176
992453.852607054
989591.6241391944
984870.0843647446
977840.4753649189
968139.8966463319
954778.9933631229
937167.9105692785
912951.2899044894
881314.339472226
836243.2350005623
777438.337127667
689089.3415366282
578527.4195017245
100000.00025607109
99999.9992303488
100000.00129069078
99999.99723306947
100000.00511923627
99999.98996710114
100000.01888143229
99999.96402855693
100000.06771951514
99999.87222062433
100000.24030591304
99999.54771367201
100000.85098632763
99998.39733224284
100003.02018949941
99994.30465051971
100010.73753586021
99979.78838622506
100037.86458922196
99929.72715733673
100127.86485577242
99775.46280858909
100364.59461027685
99503.4308071516
100309.26964967877
101485.34336250066
91134.66775265767
390578.8721988057
814602.5684332554
966652.7047385807
976370.0107254707
979459.721050654
981474.4189451531
982188.5865731208
981491.5347512264
979251.3344888261
975237.6078592921
969220.8129387667
960736.3611886947
949410.1415012466
934259.6607584658
914750.2300582469
888663.3485223344
855547.4499138837
810088.4548455288
753452.8358192196
672860.910009868
579349.2475246143
100000.00045934213
99999.99895836833
100000.00173368402
99999.99661430613
100000.00601407366
99999.98880664192
100000.02024407554
99999.96290282358
100000.06740756643
99999.87704628258
100000.22377531602
99999.59218904054
100000.74277200962
99998.64718135932
100002.46006798402
99995.54054322898
100008.02859088092
99985.73159607583
100024.73286288424
99959.12882484133
100060.82333838646
99931.80224367083
99989.83352534557
100425.72391678748
97965.40712916337
107705.73365824278
75858.54734187743
282463.0458396667
720272.1343983775
943287.7193779183
967338.1368380921
969673.8279325843
971006.5971585993
970941.4602171608