# vtk DataFile Version 2.0
JuliaCFD
ASCII
DATASET UNSTRUCTURED_GRID

POINTS 32898 float
0.0 0.0 -0.05
0.0125 0.0 -0.05
0.025 0.0 -0.05
0.0375 0.0 -0.05
0.05 0.0 -0.05
0.0625 0.0 -0.05
0.075 0.0 -0.05
0.0875 0.0 -0.05
0.1 0.0 -0.05
0.1125 0.0 -0.05
0.125 0.0 -0.05
0.1375 0.0 -0.05
0.15 0.0 -0.05
0.1625 0.0 -0.05
0.175 0.0 -0.05
0.1875 0.0 -0.05
0.2 0.0 -0.05
0.2125 0.0 -0.05
0.225 0.0 -0.05
0.2375 0.0 -0.05
0.25 0.0 -0.05
0.2625 0.0 -0.05
0.275 0.0 -0.05
0.2875 0.0 -0.05
0.3 0.0 -0.05
0.3125 0.0 -0.05
0.325 0.0 -0.05
0.3375 0.0 -0.05
0.35 0.0 -0.05
0.3625 0.0 -0.05
0.375 0.0 -0.05
0.3875 0.0 -0.05
0.4 0.0 -0.05
0.4125 0.0 -0.05
0.425 0.0 -0.05
0.4375 0.0 -0.05
0.45 0.0 -0.05
0.4625 0.0 -0.05
0.475 0.0 -0.05
0.4875 0.0 -0.05
0.5 0.0 -0.05
0.5125 0.0 -0.05
0.525 0.0 -0.05
0.5375 0.0 -0.05
0.55 0.0 -0.05
0.5625 0.0 -0.05
0.575 0.0 -0.05
0.5875 0.0 -0.05
0.6 0.0 -0.05
0.0 0.0125 -0.05
0.0125 0.0125 -0.05
0.025 0.0125 -0.05
0.0375 0.0125 -0.05
0.05 0.0125 -0.05
0.0625 0.0125 -0.05
0.075 0.0125 -0.05
0.0875 0.0125 -0.05
0.1 0.0125 -0.05
0.1125 0.0125 -0.05
0.125 0.0125 -0.05
0.1375 0.0125 -0.05
0.15 0.0125 -0.05
0.1625 0.0125 -0.05
0.175 0.0125 -0.05
0.1875 0.0125 -0.05
0.2 0.0125 -0.05
0.2125 0.0125 -0.05
0.225 0.0125 -0.05
0.2375 0.0125 -0.05
0.25 0.0125 -0.05
0.2625 0.0125 -0.05
0.275 0.0125 -0.05
0.2875 0.0125 -0.05
0.3 0.0125 -0.05
0.3125 0.0125 -0.05
0.325 0.0125 -0.05
0.3375 0.0125 -0.05
0.35 0.0125 -0.05
0.3625 0.0125 -0.05
0.375 0.0125 -0.05
0.3875 0.0125 -0.05
0.4 0.0125 -0.05
0.4125 0.0125 -0.05
0.425 0.0125 -0.05
0.4375 0.0125 -0.05
0.45 0.0125 -0.05
0.4625 0.0125 -0.05
0.475 0.0125 -0.05
0.4875 0.0125 -0.05
0.5 0.0125 -0.05
0.5125 0.0125 -0.05
0.525 0.0125 -0.05
0.5375 0.0125 -0.05
0.55 0.0125 -0.05
0.5625 0.0125 -0.05
0.575 0.0125 -0.05
0.5875 0.0125 -0.05
0.6 0.0125 -0.05
0.0 0.025 -0.05
0.0125 0.025 -0.05
0.025 0.025 -0.05
0.0375 0.025 -0.05
0.05 0.025 -0.05
0.0625 0.025 -0.05
0.075 0.025 -0.05
0.0875 0.025 -0.05
0.1 0.025 -0.05
0.1125 0.025 -0.05
0.125 0.025 -0.05
0.1375 0.025 -0.05
0.15 0.025 -0.05
0.1625 0.025 -0.05
0.175 0.025 -0.05
0.1875 0.025 -0.05
0.2 0.025 -0.05
0.2125 0.025 -0.05
0.225 0.025 -0.05
0.2375 0.025 -0.05
0.25 0.025 -0.05
0.2625 0.025 -0.05
0.275 0.025 -0.05
0.2875 0.025 -0.05
0.3 0.025 -0.05
0.3125 0.025 -0.05
0.325 0.025 -0.05
0.3375 0.025 -0.05
0.35 0.025 -0.05
0.3625 0.025 -0.05
0.375 0.025 -0.05
0.3875 0.025 -0.05
0.4 0.025 -0.05
0.4125 0.025 -0.05
0.425 0.025 -0.05
0.4375 0.025 -0.05
0.45 0.025 -0.05
0.4625 0.025 -0.05
0.475 0.025 -0.05
0.4875 0.025 -0.05
0.5 0.025 -0.05
0.5125 0.025 -0.05
0.525 0.025 -0.05
0.5375 0.025 -0.05
0.55 0.025 -0.05
0.5625 0.025 -0.05
0.575 0.025 -0.05
0.5875 0.025 -0.05
0.6 0.025 -0.05
0.0 0.0375 -0.05
0.0125 0.0375 -0.05
0.025 0.0375 -0.05
0.0375 0.0375 -0.05
0.05 0.0375 -0.05
0.0625 0.0375 -0.05
0.075 0.0375 -0.05
0.0875 0.0375 -0.05
0.1 0.0375 -0.05
0.1125 0.0375 -0.05
0.125 0.0375 -0.05
0.1375 0.0375 -0.05
0.15 0.0375 -0.05
0.1625 0.0375 -0.05
0.175 0.0375 -0.05
0.1875 0.0375 -0.05
0.2 0.0375 -0.05
0.2125 0.0375 -0.05
0.225 0.0375 -0.05
0.2375 0.0375 -0.05
0.25 0.0375 -0.05
0.2625 0.0375 -0.05
0.275 0.0375 -0.05
0.2875 0.0375 -0.05
0.3 0.0375 -0.05
0.3125 0.0375 -0.05
0.325 0.0375 -0.05
0.3375 0.0375 -0.05
0.35 0.0375 -0.05
0.3625 0.0375 -0.05
0.375 0.0375 -0.05
0.3875 0.0375 -0.05
0.4 0.0375 -0.05
0.4125 0.0375 -0.05
0.425 0.0375 -0.05
0.4375 0.0375 -0.05
0.45 0.0375 -0.05
0.4625 0.0375 -0.05
0.475 0.0375 -0.05
0.4875 0.0375 -0.05
0.5 0.0375 -0.05
0.5125 0.0375 -0.05
0.525 0.0375 -0.05
0.5375 0.0375 -0.05
0.55 0.0375 -0.05
0.5625 0.0375 -0.05
0.575 0.0375 -0.05
0.5875 0.0375 -0.05
0.6 0.0375 -0.05
0.0 0.05 -0.05
0.0125 0.05 -0.05
0.025 0.05 -0.05
0.0375 0.05 -0.05
0.05 0.05 -0.05
0.0625 0.05 -0.05
0.075 0.05 -0.05
0.0875 0.05 -0.05
0.1 0.05 -0.05
0.1125 0.05 -0.05
0.125 0.05 -0.05
0.1375 0.05 -0.05
0.15 0.05 -0.05
0.1625 0.05 -0.05
0.175 0.05 -0.05
0.1875 0.05 -0.05
0.2 0.05 -0.05
0.2125 0.05 -0.05
0.225 0.05 -0.05
0.2375 0.05 -0.05
0.25 0.05 -0.05
0.2625 0.05 -0.05
0.275 0.05 -0.05
0.2875 0.05 -0.05
0.3 0.05 -0.05
0.3125 0.05 -0.05
0.325 0.05 -0.05
0.3375 0.05 -0.05
0.35 0.05 -0.05
0.3625 0.05 -0.05
0.375 0.05 -0.05
0.3875 0.05 -0.05
0.4 0.05 -0.05
0.4125 0.05 -0.05
0.425 0.05 -0.05
0.4375 0.05 -0.05
0.45 0.05 -0.05
0.4625 0.05 -0.05
0.475 0.05 -0.05
0.4875 0.05 -0.05
0.5 0.05 -0.05
0.5125 0.05 -0.05
0.525 0.05 -0.05
0.5375 0.05 -0.05
0.55 0.05 -0.05
0.5625 0.05 -0.05
0.575 0.05 -0.05
0.5875 0.05 -0.05
0.6 0.05 -0.05
0.0 0.0625 -0.05
0.0125 0.0625 -0.05
0.025 0.0625 -0.05
0.0375 0.0625 -0.05
0.05 0.0625 -0.05
0.0625 0.0625 -0.05
0.075 0.0625 -0.05
0.0875 0.0625 -0.05
0.1 0.0625 -0.05
0.1125 0.0625 -0.05
0.125 0.0625 -0.05
0.1375 0.0625 -0.05
0.15 0.0625 -0.05
0.1625 0.0625 -0.05
0.175 0.0625 -0.05
0.1875 0.0625 -0.05
0.2 0.0625 -0.05
0.2125 0.0625 -0.05
0.225 0.0625 -0.05
0.2375 0.0625 -0.05
0.25 0.0625 -0.05
0.2625 0.0625 -0.05
0.275 0.0625 -0.05
0.2875 0.0625 -0.05
0.3 0.0625 -0.05
0.3125 0.0625 -0.05
0.325 0.0625 -0.05
0.3375 0.0625 -0.05
0.35 0.0625 -0.05
0.3625 0.0625 -0.05
0.375 0.0625 -0.05
0.3875 0.0625 -0.05
0.4 0.0625 -0.05
0.4125 0.0625 -0.05
0.425 0.0625 -0.05
0.4375 0.0625 -0.05
0.45 0.0625 -0.05
0.4625 0.0625 -0.05
0.475 0.0625 -0.05
0.4875 0.0625 -0.05
0.5 0.0625 -0.05
0.5125 0.0625 -0.05
0.525 0.0625 -0.05
0.5375 0.0625 -0.05
0.55 0.0625 -0.05
0.5625 0.0625 -0.05
0.575 0.0625 -0.05
0.5875 0.0625 -0.05
0.6 0.0625 -0.05
0.0 0.075 -0.05
0.0125 0.075 -0.05
0.025 0.075 -0.05
0.0375 0.075 -0.05
0.05 0.075 -0.05
0.0625 0.075 -0.05
0.075 0.075 -0.05
0.0875 0.075 -0.05
0.1 0.075 -0.05
0.1125 0.075 -0.05
0.125 0.075 -0.05
0.1375 0.075 -0.05
0.15 0.075 -0.05
0.1625 0.075 -0.05
0.175 0.075 -0.05
0.1875 0.075 -0.05
0.2 0.075 -0.05
0.2125 0.075 -0.05
0.225 0.075 -0.05
0.2375 0.075 -0.05
0.25 0.075 -0.05
0.2625 0.075 -0.05
0.275 0.075 -0.05
0.2875 0.075 -0.05
0.3 0.075 -0.05
0.3125 0.075 -0.05
0.325 0.075 -0.05
0.3375 0.075 -0.05
0.35 0.075 -0.05
0.3625 0.075 -0.05
0.375 0.075 -0.05
0.3875 0.075 -0.05
0.4 0.075 -0.05
0.4125 0.075 -0.05
0.425 0.075 -0.05
0.4375 0.075 -0.05
0.45 0.075 -0.05
0.4625 0.075 -0.05
0.475 0.075 -0.05
0.4875 0.075 -0.05
0.5 0.075 -0.05
0.5125 0.075 -0.05
0.525 0.075 -0.05
0.5375 0.075 -0.05
0.55 0.075 -0.05
0.5625 0.075 -0.05
0.575 0.075 -0.05
0.5875 0.075 -0.05
0.6 0.075 -0.05
0.0 0.0875 -0.05
0.0125 0.0875 -0.05
0.025 0.0875 -0.05
0.0375 0.0875 -0.05
0.05 0.0875 -0.05
0.0625 0.0875 -0.05
0.075 0.0875 -0.05
0.0875 0.0875 -0.05
0.1 0.0875 -0.05
0.1125 0.0875 -0.05
0.125 0.0875 -0.05
0.1375 0.0875 -0.05
0.15 0.0875 -0.05
0.1625 0.0875 -0.05
0.175 0.0875 -0.05
0.1875 0.0875 -0.05
0.2 0.0875 -0.05
0.2125 0.0875 -0.05
0.225 0.0875 -0.05
0.2375 0.0875 -0.05
0.25 0.0875 -0.05
0.2625 0.0875 -0.05
0.275 0.0875 -0.05
0.2875 0.0875 -0.05
0.3 0.0875 -0.05
0.3125 0.0875 -0.05
0.325 0.0875 -0.05
0.3375 0.0875 -0.05
0.35 0.0875 -0.05
0.3625 0.0875 -0.05
0.375 0.0875 -0.05
0.3875 0.0875 -0.05
0.4 0.0875 -0.05
0.4125 0.0875 -0.05
0.425 0.0875 -0.05
0.4375 0.0875 -0.05
0.45 0.0875 -0.05
0.4625 0.0875 -0.05
0.475 0.0875 -0.05
0.4875 0.0875 -0.05
0.5 0.0875 -0.05
0.5125 0.0875 -0.05
0.525 0.0875 -0.05
0.5375 0.0875 -0.05
0.55 0.0875 -0.05
0.5625 0.0875 -0.05
0.575 0.0875 -0.05
0.5875 0.0875 -0.05
0.6 0.0875 -0.05
0.0 0.1 -0.05
0.0125 0.1 -0.05
0.025 0.1 -0.05
0.0375 0.1 -0.05
0.05 0.1 -0.05
0.0625 0.1 -0.05
0.075 0.1 -0.05
0.0875 0.1 -0.05
0.1 0.1 -0.05
0.1125 0.1 -0.05
0.125 0.1 -0.05
0.1375 0.1 -0.05
0.15 0.1 -0.05
0.1625 0.1 -0.05
0.175 0.1 -0.05
0.1875 0.1 -0.05
0.2 0.1 -0.05
0.2125 0.1 -0.05
0.225 0.1 -0.05
0.2375 0.1 -0.05
0.25 0.1 -0.05
0.2625 0.1 -0.05
0.275 0.1 -0.05
0.2875 0.1 -0.05
0.3 0.1 -0.05
0.3125 0.1 -0.05
0.325 0.1 -0.05
0.3375 0.1 -0.05
0.35 0.1 -0.05
0.3625 0.1 -0.05
0.375 0.1 -0.05
0.3875 0.1 -0.05
0.4 0.1 -0.05
0.4125 0.1 -0.05
0.425 0.1 -0.05
0.4375 0.1 -0.05
0.45 0.1 -0.05
0.4625 0.1 -0.05
0.475 0.1 -0.05
0.4875 0.1 -0.05
0.5 0.1 -0.05
0.5125 0.1 -0.05
0.525 0.1 -0.05
0.5375 0.1 -0.05
0.55 0.1 -0.05
0.5625 0.1 -0.05
0.575 0.1 -0.05
0.5875 0.1 -0.05
0.6 0.1 -0.05
0.0 0.1125 -0.05
0.0125 0.1125 -0.05
0.025 0.1125 -0.05
0.0375 0.1125 -0.05
0.05 0.1125 -0.05
0.0625 0.1125 -0.05
0.075 0.1125 -0.05
0.0875 0.1125 -0.05
0.1 0.1125 -0.05
0.1125 0.1125 -0.05
0.125 0.1125 -0.05
0.1375 0.1125 -0.05
0.15 0.1125 -0.05
0.1625 0.1125 -0.05
0.175 0.1125 -0.05
0.1875 0.1125 -0.05
0.2 0.1125 -0.05
0.2125 0.1125 -0.05
0.225 0.1125 -0.05
0.2375 0.1125 -0.05
0.25 0.1125 -0.05
0.2625 0.1125 -0.05
0.275 0.1125 -0.05
0.2875 0.1125 -0.05
0.3 0.1125 -0.05
0.3125 0.1125 -0.05
0.325 0.1125 -0.05
0.3375 0.1125 -0.05
0.35 0.1125 -0.05
0.3625 0.1125 -0.05
0.375 0.1125 -0.05
0.3875 0.1125 -0.05
0.4 0.1125 -0.05
0.4125 0.1125 -0.05
0.425 0.1125 -0.05
0.4375 0.1125 -0.05
0.45 0.1125 -0.05
0.4625 0.1125 -0.05
0.475 0.1125 -0.05
0.4875 0.1125 -0.05
0.5 0.1125 -0.05
0.5125 0.1125 -0.05
0.525 0.1125 -0.05
0.5375 0.1125 -0.05
0.55 0.1125 -0.05
0.5625 0.1125 -0.05
0.575 0.1125 -0.05
0.5875 0.1125 -0.05
0.6 0.1125 -0.05
0.0 0.125 -0.05
0.0125 0.125 -0.05
0.025 0.125 -0.05
0.0375 0.125 -0.05
0.05 0.125 -0.05
0.0625 0.125 -0.05
0.075 0.125 -0.05
0.0875 0.125 -0.05
0.1 0.125 -0.05
0.1125 0.125 -0.05
0.125 0.125 -0.05
0.1375 0.125 -0.05
0.15 0.125 -0.05
0.1625 0.125 -0.05
0.175 0.125 -0.05
0.1875 0.125 -0.05
0.2 0.125 -0.05
0.2125 0.125 -0.05
0.225 0.125 -0.05
0.2375 0.125 -0.05
0.25 0.125 -0.05
0.2625 0.125 -0.05
0.275 0.125 -0.05
0.2875 0.125 -0.05
0.3 0.125 -0.05
0.3125 0.125 -0.05
0.325 0.125 -0.05
0.3375 0.125 -0.05
0.35 0.125 -0.05
0.3625 0.125 -0.05
0.375 0.125 -0.05
0.3875 0.125 -0.05
0.4 0.125 -0.05
0.4125 0.125 -0.05
0.425 0.125 -0.05
0.4375 0.125 -0.05
0.45 0.125 -0.05
0.4625 0.125 -0.05
0.475 0.125 -0.05
0.4875 0.125 -0.05
0.5 0.125 -0.05
0.5125 0.125 -0.05
0.525 0.125 -0.05
0.5375 0.125 -0.05
0.55 0.125 -0.05
0.5625 0.125 -0.05
0.575 0.125 -0.05
0.5875 0.125 -0.05
0.6 0.125 -0.05
0.0 0.1375 -0.05
0.0125 0.1375 -0.05
0.025 0.1375 -0.05
0.0375 0.1375 -0.05
0.05 0.1375 -0.05
0.0625 0.1375 -0.05
0.075 0.1375 -0.05
0.0875 0.1375 -0.05
[...]
CELL_DATA 16128
SCALARS P float 1
LOOKUP_TABLE default
99999.99702987494
100000.00420115134
99999.9931443654
100000.01008003713
99999.9843743563
100000.0230099682
99999.96583009767
100000.04878314876
99999.93228953173
100000.087308678
99999.90231583687
100000.06652850813
100000.09320523686
99999.38170461862
100002.14127137006
99993.62086990301
100017.99474004307
99950.12190170436
100137.93076376281
99618.77291277362
101071.82885493839
97057.14133746103
108727.56209452276
77501.7996895397
204415.8446873061
655264.5126434541
1.0126830974267585e6
1.052087640390859e6
1.0585177003269468e6
1.071449513566989e6
1.0823376023053143e6
1.0932349156593317e6
1.1035683921917258e6
1.1135025282292624e6
1.1229710419911519e6
1.1320088543691717e6
1.1405554513324252e6
1.1486691967692694e6
1.156194073575333e6
1.1633223248399722e6
1.1696238227642698e6
1.1757332633085097e6
1.1804151932319275e6
1.1856896030083236e6
1.187877523228122e6
1.1932842188945476e6
1.1907193061892323e6
1.1996929671359477e6
99999.99713450036
100000.00406287488
99999.99348584077
100000.0094925559
99999.98557259784
100000.0208038196
99999.9700351367
100000.04102753637
99999.94653842977
100000.06164112577
99999.94772595007
99999.98820278584
100000.22384159575
99999.17426693383
100002.44597684029
99993.23711683121
100018.30993473173
99950.41605587707
100135.53471876243
99627.27466267526
101047.50476396583
97118.8883913074
108565.2963461454
77802.96601526157
202020.68363031503
652568.9874921282
1.0146661357127856e6
1.0567268200309798e6
1.0635203320823412e6
1.0768665930352432e6
1.0879232377372885e6
1.0989391263947154e6
1.1093611699557202e6
1.1193810353461662e6
1.1289400667716695e6
1.13807637760813e6
1.1467289158579719e6
1.1549542625745763e6
1.1625929929726245e6
1.1698342782697126e6
1.1762421239925383e6
1.1824489954938828e6
1.187208353736923e6
1.1925464751877561e6
1.1947543066047928e6
1.2001887881529045e6
1.1975350373441756e6
1.2066079782718197e6
99999.99662798624
100000.00504965008
99999.99184751211
100000.01247888689
99999.98040142439
100000.03003229412
99999.95380220274
100000.06985682526
99999.89548971155
100000.1523542906
99999.78646605472
100000.27548427512
99999.71120547646
100000.09156919009
100000.79894683303
99996.21234992763
100012.89134199789
99960.43201279266
100116.63568454422
99664.00514825618
100972.11696510165
97275.74741143426
108173.30004766745
78564.15111874053
195106.61634854483
640517.3304049801
1.0078380614467061e6
1.0537362493334808e6
1.0595612996429885e6
1.0727568043229629e6
1.0835794771738295e6
1.09442013020688e6
1.1046727803245217e6
1.114525972654274e6
1.1239148707119012e6
1.1328761229853556e6
1.141349964066704e6
1.1493938786756296e6
1.1568531763381965e6
1.163917402888778e6
1.1701598056791592e6
1.1762089845768898e6
1.1808359217012506e6
1.1860539871018834e6
1.1881783938846265e6
1.1935613055804865e6
1.190829245149766e6
1.2000584272734306e6
99999.9959571145
100000.00636618947
99999.98967123631
100000.01644053565
99999.97355945445
100000.04219953946
99999.93248210129
100000.10753237955
99999.82914999897
100000.26946775064
99999.57977960525
100000.64082443742
99999.06443489963
100001.24037600253
99998.747913081
99999.9091229509
100006.13311037606
99973.08756488444
100092.12604589583
99713.62841157151
100864.36472018255
97513.82833218988
107544.08643621032
79874.4319947906
185038.7951619514
623717.6366960651
1.0010572783050995e6
1.0539945232877021e6
1.059053563240342e6
1.0725338647162297e6
1.0833788935094706e6
1.09424837401642e6
1.1045010341884617e6
1.1143463293777506e6
1.1237250305342982e6
1.1326788752534087e6
1.141152102155287e6
1.1492034266500685e6
1.156681421224967e6
1.1637733893148822e6
1.1700569778647984e6
1.176152670125301e6
1.1808379010364686e6
1.1861125295449002e6
1.1882863245811814e6
1.1937396683976e6
1.1909455251345255e6
1.200427036964143e6
99999.99524230158
100000.00776754241
99999.98736353559
100000.02062922674
99999.96635056035
100000.05497371576
99999.91018014945
100000.14679746615
99999.76025735248
100000.39069587579
99999.36637715407
100001.01752186466
99998.39714049958
100002.430052324
99996.60566965552
100003.82991797008
99998.78409665493
99987.35393349206
100063.11726515391
99775.77856212688
100721.04238150455
97848.73536345839
106625.4519919643
81902.6603981487
171998.87516097253
600388.2873102488
990043.2516561948
1.0525744930631153e6
1.0562333771928828e6
1.069710419909339e6
1.0803197890786543e6
1.0910024320427084e6
1.1010622587676668e6
1.1107154667537508e6
1.1199006045677937e6
1.1286590660821185e6
1.1369369049826222e6
1.1447927275006312e6
1.1520795956113907e6
1.1589826827142532e6
1.1650887405714563e6
1.171010195687083e6
1.1755416874708282e6
1.180668628778106e6
1.18271431477411e6
1.188092363123066e6
1.1851198996236152e6
1.1948625929283295e6
99999.99461097625
100000.00899699677
99999.9853483349
100000.02426775645
99999.9601222102
100000.06595614534
99999.89110135678
100000.18024869458
99999.70177096639
100000.4934008067
99999.18561658221
100001.33747451197
99997.82642170409
100003.4607342498
99994.70989876661
100007.41124989417
99991.76521588139
100001.76706825348
100031.79974628967
99847.50725180062
100545.33881367819
98281.96676415546
105403.06235079704
84759.56770205245
156794.1107610093
571196.8646220609
975703.4025751821
1.0514509573985205e6
1.0537151238088482e6
1.0673235277460294e6
1.0777988620362373e6
1.0883730353110875e6
1.0983067195475334e6
1.107826438535072e6
1.116874398303709e6
1.1254951378447032e6
1.1336396649899958e6
1.1413685935736783e6
1.1485415187956756e6
1.1553426098012864e6
1.1613688635984026e6
1.1672243866832634e6
1.171718630053897e6
1.1768214048445553e6
1.1788528361848549e6
1.1842749535563423e6
1.1811747101158642e6
1.1912933293115182e6
99999.99416396476
100000.00985350987
99999.98395594477
100000.0267529124
99999.95591644675
100000.07329421597
99999.8784942595
100000.20215056231
99999.6637880366
100000.55977826945
99999.0688855584
100001.54530111581
99997.45006972823
100004.15951193594
99993.36673881677
100010.11000766818
99986.0404302322
100014.6127699281
100001.21515535362
99923.442566602
100346.34519037152
98801.03949888531
103902.35576599804
88488.5198953282
140197.35420479125
536010.7794307481
956691.2020646988
1.0495684359077518e6
1.0503825205273689e6
1.0639637242788975e6
1.0742045595551457e6
1.0845593518783285e6
1.0942639111783735e6
1.1035458400851854e6
1.1123498878175484e6
1.1207206363119318e6
1.1286121390786238e6
1.136084838778294e6
1.1430032253310073e6
1.1495482188225943e6
1.1553259647642032e6
1.160930904971395e6
1.1651889769087953e6
1.170060455142468e6
1.1718673661819354e6
1.1771579757625663e6
1.1737507502781858e6
1.184263894725878e6
99999.9939554917
100000.01023230907
99999.98335673597
100000.02777893268
99999.95425677372
100000.07606315875
99999.87398005048
100000.20962342268
99999.6514471115
100000.58056525124
99999.0330381262
100001.60998900926
99997.32585805499
100004.41730848256
99992.78533336814
100011.51865329868
99982.41944347351
100024.25257663096
99974.75295404899
99996.52800391935
100139.41152173135
99374.31313855613
102209.32171579594
92977.83033466434
123223.02833356854
495204.2143658736
932374.2545025158
1.0470079213985471e6
1.0467871757560826e6
1.0602472510986463e6
1.0702814126445719e6
1.0804094211491214e6
1.089879921190255e6
1.0989132899219897e6
1.1074603446029953e6
1.1155665537138542e6
1.123191148235052e6
1.130396896292169e6
1.1370568569241788e6
1.1433533453866185e6
1.1489077246078774e6
1.1543110491147442e6
1.158410938291929e6
1.163160990543237e6
1.1648739140682102e6
1.170185857497312e6
1.1665642633429626e6
1.1776320118136941e6
99999.99398597731
100000.01014043637
99999.98353473275
100000.02738889636
99999.95505332512
100000.0744481323
99999.87720405546
100000.2033194305
99999.66360884838
100000.55762934072
99999.07528957204
100001.5349723401
99997.45163878408
100004.22808295427
99993.00092715882
100011.51510852815
99981.26860732648
100029.67103245878
99955.1740730924
100059.50512662991
99944.19911097232
99951.39463403645
100472.36250357634
97906.62960095167
107041.70980478046
449283.81575498247
901692.0664768136
1.0431683279520168e6
1.042806293062201e6
1.0558967096155973e6
1.065703216417691e6
1.0755331709605292e6
1.0847043520691572e6
1.0934164301177487e6
1.1016275386815502e6
1.109381168927965e6
1.1166389239370471e6
1.123461869675424e6
1.1297258894075265e6
1.135607686882635e6
1.1407336305414939e6
1.1456835014889261e6
1.1493136280815199e6
1.1535807410274716e6
1.1547775017030712e6
1.1597232939352077e6
1.1554586973579614e6
1.16706436356825e6
99999.99420988673
100000.0096818271
99999.98431149848
100000.02593278546
99999.95766895678
100000.06963980362
99999.8859854532
100000.18723048209
99999.69303368236
100000.50399740307
99999.17244587326
100001.36097882103
99997.75729074838
100003.70906553224
99993.82730644452
100010.36886727173
99982.28277468492
100030.94488416825
99943.67027644112
100106.72654770457
99781.09587869213
100468.64935488619
98887.69815032274
102717.83623632607
92975.87545683367
399146.5839013132
863660.7264250141
1.0374107012504279e6
1.0386279990632207e6
1.0510233387454706e6
1.060625176411894e6
1.0701130171156155e6
1.0789475841806878e6
1.0872933946595653e6
1.095119010837798e6
1.1024660326170323e6
1.1093003239156932e6
1.115684740831705e6
1.121504334307451e6
1.1269402410382535e6
1.1316394351951561e6
1.136188601822077e6
1.1394778843694008e6
1.1434759488763576e6
1.1444692016616056e6
1.1494061707138114e6
1.1448309463672813e6
1.1572682640870863e6
99999.99455666638
100000.00901390503
99999.98541840323
100000.02393232573
99999.96115422764
100000.06341433465
99999.89704902076
100000.16741550562
99999.72856058621
100000.44017704287
99999.28698540258
100001.15625055747
99998.11978786823
100003.07906996134
99994.88394055104
100008.71768189348
99984.46908577507
100029.39822119295
99939.27268241704
100135.89407596937
99666.21838466277
100861.65876806063
97662.98983883303
106677.27604690372
82374.43840239101
346084.2482229864
817303.2136152555
1.0287027944097035e6
1.0343270997173075e6
1.0455835591819254e6
1.054999442182872e6
1.0640841788389024e6
1.072525321426263e6
1.0804369380090334e6
1.087798330646184e6
1.0946452699385805e6
1.1009422651299397e6
1.1067455880507366e6
1.1119354055341e6
1.1166786634693043e6
1.120611103695885e6
1.1242958393108319e6
1.126598547398646e6
1.1295001236131801e6
1.1291997769965099e6
1.1330245757918614e6
1.1268095428517228e6
1.1398432958941287e6
99999.99495835131
100000.00828758426
99999.98659833444
100000.02188580528
99999.96459882676
100000.05748276674
99999.90721194184
100000.14982844876
99999.75906404837
100000.38696824777
99999.3800583384
100000.9931841157
99998.40480191185
100002.58537451112
99995.72173016408
100007.35838909647
99986.47221962917
100027.15550855784
99939.2478766162
100148.4025694765
99607.71161115904
101080.16575476615
96972.11772376431
109029.94915928422
76382.90004708825
291820.06000439095
761874.5338950042
1.0156800921310129e6
1.0299945031857081e6
1.0396148871885943e6
1.0488697458128857e6
1.0574994167574483e6
1.0654965150190073e6
1.0729140174887439e6
1.0797429993624308e6
1.0860134234625786e6
1.0916901317215387e6
1.096827485169289e6
1.1013114839675499e6
1.1053134052748436e6
1.108494176201735e6
1.1114361862432659e6
1.113068181199192e6
1.1154057206250257e6
1.1147119861913738e6
1.1184021440826813e6
1.1118408285760058e6
1.1259833148141017e6
99999.9953741339
100000.00759130996
99999.98770204312
100000.02007896533
99999.96748181603
100000.0528248172
99999.9146391957
100000.13794173772
99999.77794869676
100000.35696237176
99999.427548275
100000.91805443299
99998.52355056518
100002.39770726381
99996.01854593483
100006.89279910966
99987.19556426129
100026.11174177076
99940.60599311061
100147.78860017637
99604.88362815011
101102.58768984843
96901.45763325534
109308.48867425264
75586.36094705504
238430.29038794982
697055.6762294573
996607.3858777817
1.0256142234368784e6
1.0331595168526538e6
1.0422503408353461e6
1.050373102007464e6
1.0578675702215023e6
1.064721393620512e6
1.0709333353459307e6
1.0765220985666234e6
1.081442980328049e6
1.0857331278288413e6
1.0892563794414261e6
1.0921469322514385e6
1.094011956873856e6
1.0953601355224089e6
1.0949856803424554e6
1.094860858715778e6
1.0908900388929127e6
1.0912122451700734e6
1.0796488701956633e6
1.093695418682202e6
99999.99580210263
100000.00692207037
99999.98873930644
100000.01848110511
99999.96987245267
100000.04929213056
99999.91962495678
100000.1312027396
99999.78620150978
100000.34850893155
99999.43198850036
100000.92754629014
99998.47882853917
100002.51863974996
99995.75186343156
100007.40122276181
99986.40269572058
100026.88146854495
99941.78485676034
100137.66548536503
99648.84170308479
100948.0579989928
97398.79418473998
107673.62786700724
79676.22366445768
188255.67874675666
623165.5649527474
969422.0047513398
1.0209688225311941e6
1.0263124853339605e6
1.035175178295551e6
1.0427485489507684e6
1.0496828665500826e6
1.0559090627980598e6
1.0614289268174262e6
1.066249377972679e6
1.0703167297685966e6
1.0736552751296032e6
1.0761216676492833e6
1.0778404382084406e6
1.0784373839713214e6
1.0784350699684792e6
1.0767491765106472e6
1.0753535100032333e6
1.0705865768960086e6
1.070013809264874e6
1.0584466300405986e6
1.0717333295109118e6
99999.99627257751
100000.00619821128
99999.98985815958
100000.01678214328
99999.97237130576
100000.04570223665
99999.92445778214
100000.12520443852
99999.79224695983
100000.34562772371
99999.42346161634
100000.96558432188
99998.37390408153
100002.76117517981
99995.2517492321
100008.32377626265
99984.97401297017
100028.2765330213
99943.68539960739
100119.91982134379
99725.66316372226
100672.71792701156
98276.76380429188
104773.03102764061
87408.01438096025
143997.44366757985
541406.8738691754
931775.1101103133
1.0154231839925159e6
1.0192022857952613e6
1.0276691839536527e6
1.0346630737356517e6
1.0409789251271818e6
1.0465132348228438e6
1.0512605287472084e6
1.0552098086766622e6
1.0582856631453063e6
1.0604786725994297e6
1.0615966311887156e6
1.0616850618022052e6
1.0602384758034842e6
1.0575728198867063e6
1.0522087676116736e6
1.0456917745472944e6
1.033028070716104e6
1.0224142518503887e6
993062.7769185816
999553.9831824288
99999.9968250619
100000.00531180244
99999.99125473076
100000.01456927479
99999.97578608399
100000.04044818431
99999.93229134983
100000.11377765055
99999.80809527643
100000.32505819303
99999.44679732292
100000.94634145396
99998.37173997417
100002.81959006049
99995.08149172465
100008.65208238988
99984.62632793108
100027.64412964346
99949.51977974715
100093.87166091206
99820.91226725407
100351.6119359561
99281.55741686698
101549.47518688631
96570.43471199636
108737.72035628803
454169.6650998065
881173.6608660602
1.0076481046832372e6
1.0119684067148456e6
1.0197516027047659e6
1.0261577313652817e6
1.0318056599701827e6
1.036595524514484e6
1.04050569678617e6
1.0435061855773408e6
1.0454989120769727e6
1.0464419362365701e6
1.0461079429038595e6
1.0444881225787756e6
1.0410510215351225e6
1.0360352890202348e6
1.0281079820380548e6
1.0186199389321865e6
1.0038654648712847e6
989008.3763286265
960876.759893254
927821.2320783477
99999.9974786753
100000.00419895072
99999.99305019424
100000.01157315778
99999.9806673497
100000.03239450957
99999.94543164497
100000.09227137495
99999.84307249995
100000.26821887496
99999.53882362721
100000.79731419132
99998.6139471682
100002.42041149197
99995.76052891849
100007.42555951166
99987.05856469361
100022.22963514058
99962.97017968923
100057.53166812149
99923.73141248367
100051.120544775
100161.26948516302
98916.16183719278
104378.98475870048
85480.63252280894
365313.4544950118
815450.0793188112
995373.129256429
1.004700643339706e6
1.01143797305018e6
1.0172719970214949e6
1.0222162165535074e6
1.0262201738660528e6
1.0292385655771495e6
1.031219450713549e6
1.0320333983483822e6
1.0315908327489006e6
1.0295957211110153e6
1.0259202347645087e6
1.0198495713333777e6
1.0112307827355645e6
998074.0810715911
980132.182575712
950684.6854885223
907857.496632465
822430.6128250443
671125.7324023156
99999.99821014382
100000.00289455225
99999.99519321282
100000.00786707259
99999.9869232573
100000.02163805657
99999.96384298982
100000.06049314576
99999.89803190723
100000.17260011674
99999.70595527954
100000.50332593951
99999.13466302596
100001.48999627361
99997.44140339347
100004.34403263884
99992.82016156091
100011.16437511484
99984.97953749413
100011.74389274765
100024.085396986
99818.38381025576
100734.22189367664
97458.5323801066
108459.20773502698
75708.51909113501
279884.7238606769
733699.7193259058
975450.1118335149
997390.0925096321
1.0027843948669311e6
1.0080636479275189e6
1.0122826629980643e6
1.0154728636948776e6
1.017564359621068e6
1.01848318785868e6
1.0180689976047558e6
1.0161821993763631e6
1.0124666504549438e6
1.0066856080390768e6
997987.0952751458
985953.6630082956
968303.2297934409
944107.1346827984
906418.9103025476
851853.2775142756
756798.1822608465
601214.0410626441
99999.9989511422
100000.00154162181
99999.9974411911
100000.00390960346
99999.99372669704
100000.00970957142
99999.98471234305
100000.02364511038
99999.96334834465
100000.05604546727
99999.91508365562
100000.12583867923
99999.81980881895
100000.23993393322
99999.73228449337
100000.13188737113
100000.57581166748
99996.90748254013
100011.0262141495
99964.88295668959
100106.12162780673
99683.9504111663
100929.05110807193
97294.62172916898
108153.49482923411
77926.05319444255
203198.39334645565
637010.4794243218
944148.0437024648
989788.0668229939
993933.5586003031
998620.6826059322
1.00209757810384e6
1.0044550244828054e6
1.0056012702889817e6
1.0054417814222933e6
1.0037844456152496e6
1.0004500736123084e6
995026.2551973744
987195.2041199362
976009.3384640809
960903.7181743076
939490.3195283881
910708.6865764094
868000.4228832185
809121.6724365881
715115.3463000684
582477.7184906943
99999.99960804415
100000.00034586444
99999.99943836857
100000.00039110187
99999.99979916631
99999.99903568816
100000.00345741436
99999.9904323617
100000.02245432054
99999.95016637087
100000.1057784227
99999.78050181981
100000.44801589301
99999.09338807657
100001.827157263
99996.31366374368
100007.47806989992
99984.66071444546
100031.967894959
99931.81189719669
100149.35849672208
99661.37163716412
100794.30670152014
98077.50362987885
104943.4172292096
87776.18112592127
140530.94685011165
528611.485063899
897208.9378555027
980893.2023199039
985066.8510457308
989032.5511404368
991755.6335124052
993272.5805024771
993475.2815560831
992249.0715673713
989376.9691030653
984648.9060839636
977615.9874005879
967915.2018772796
954557.1970542753
936952.003669848
912744.7322264132
881120.1167170065
836066.4028278302
777281.4791742101
688962.1252275592
578430.1418784356
100000.00009584204
99999.9994946523
100000.00085805575
99999.99794825642
100000.00395365854
99999.99188206479
100000.01577231474
99999.96908838686
100000.05956983496
99999.88529569932
100000.21959668928
99999.58008125739
100000.80162053123
99998.4698420823
100002.92109891909
99994.41997589271
100010.66377742014
99979.61962800108
100038.8865152789
99926.08497652439
100139.1146117465
99742.5932435926
100458.57483621994
99238.38865642654
101070.03407559475
99333.80305050412
97375.9737327142
414472.7357428489
830131.3356713128
968110.4330233571
976237.5812140444
979341.9971168145
981326.6701956644
982018.5050649248
981303.9468556679
979050.5631384422
975027.6440900811
969005.2674435189
960518.6261279925
949193.4520810005
934047.2327599371
914545.1366806831
888469.067355435
855366.9189679575
809926.3174418921
753311.3478286813
672747.6467055527
579263.832022147
100000.00037026643
99999.99908019019
100000.00153863986
99999.99689006539
100000.00562015764
99999.98932240925
100000.01964233477
99999.96341829123
100000.06749115529
99999.87511926389
100000.23047192484
99999.57429877983
100000.78579958127
99998.54952358577
100002.67434570083
99995.0805465998
100009.00260382613
99983.686720326
100029.00603624622
99950.21510855712
100079.42754965089
99892.90544202714
100071.46229727195
100253.77966631122
98326.2476077468
106926.73776876659
77243.75373146698
303649.3531691223
740143.7979696266
946981.3639127825
967246.5998536828
969568.8875102455
970865.7039497787
970775.9271005513