# vtk DataFile Version 2.0
JuliaCFD
ASCII
DATASET UNSTRUCTURED_GRID

POINTS 32898 float
0.0 0.0 -0.05
0.0125 0.0 -0.05
0.025 0.0 -0.05
0.0375 0.0 -0.05
0.05 0.0 -0.05
0.0625 0.0 -0.05
0.075 0.0 -0.05
0.0875 0.0 -0.05
0.1 0.0 -0.05
0.1125 0.0 -0.05
0.125 0.0 -0.05
0.1375 0.0 -0.05
0.15 0.0 -0.05
0.1625 0.0 -0.05
0.175 0.0 -0.05
0.1875 0.0 -0.05
0.2 0.0 -0.05
0.2125 0.0 -0.05
0.225 0.0 -0.05
0.2375 0.0 -0.05
0.25 0.0 -0.05
0.2625 0.0 -0.05
0.275 0.0 -0.05
0.2875 0.0 -0.05
0.3 0.0 -0.05
0.3125 0.0 -0.05
0.325 0.0 -0.05
0.3375 0.0 -0.05
0.35 0.0 -0.05
0.3625 0.0 -0.05
0.375 0.0 -0.05
0.3875 0.0 -0.05
0.4 0.0 -0.05
0.4125 0.0 -0.05
0.425 0.0 -0.05
0.4375 0.0 -0.05
0.45 0.0 -0.05
0.4625 0.0 -0.05
0.475 0.0 -0.05
0.4875 0.0 -0.05
0.5 0.0 -0.05
0.5125 0.0 -0.05
0.525 0.0 -0.05
0.5375 0.0 -0.05
0.55 0.0 -0.05
0.5625 0.0 -0.05
0.575 0.0 -0.05
0.5875 0.0 -0.05
0.6 0.0 -0.05
0.0 0.0125 -0.05
0.0125 0.0125 -0.05
0.025 0.0125 -0.05
0.0375 0.0125 -0.05
0.05 0.0125 -0.05
0.0625 0.0125 -0.05
0.075 0.0125 -0.05
0.0875 0.0125 -0.05
0.1 0.0125 -0.05
0.1125 0.0125 -0.05
0.125 0.0125 -0.05
0.1375 0.0125 -0.05
0.15 0.0125 -0.05
0.1625 0.0125 -0.05
0.175 0.0125 -0.05
0.1875 0.0125 -0.05
0.2 0.0125 -0.05
0.2125 0.0125 -0.05
0.225 0.0125 -0.05
0.2375 0.0125 -0.05
0.25 0.0125 -0.05
0.2625 0.0125 -0.05
0.275 0.0125 -0.05
0.2875 0.0125 -0.05
0.3 0.0125 -0.05
0.3125 0.0125 -0.05
0.325 0.0125 -0.05
0.3375 0.0125 -0.05
0.35 0.0125 -0.05
0.3625 0.0125 -0.05
0.375 0.0125 -0.05
0.3875 0.0125 -0.05
0.4 0.0125 -0.05
0.4125 0.0125 -0.05
0.425 0.0125 -0.05
0.4375 0.0125 -0.05
0.45 0.0125 -0.05
0.4625 0.0125 -0.05
0.475 0.0125 -0.05
0.4875 0.0125 -0.05
0.5 0.0125 -0.05
0.5125 0.0125 -0.05
0.525 0.0125 -0.05
0.5375 0.0125 -0.05
0.55 0.0125 -0.05
0.5625 0.0125 -0.05
0.575 0.0125 -0.05
0.5875 0.0125 -0.05
0.6 0.0125 -0.05
0.0 0.025 -0.05
0.0125 0.025 -0.05
0.025 0.025 -0.05
0.0375 0.025 -0.05
0.05 0.025 -0.05
0.0625 0.025 -0.05
0.075 0.025 -0.05
0.0875 0.025 -0.05
0.1 0.025 -0.05
0.1125 0.025 -0.05
0.125 0.025 -0.05
0.1375 0.025 -0.05
0.15 0.025 -0.05
0.1625 0.025 -0.05
0.175 0.025 -0.05
0.1875 0.025 -0.05
0.2 0.025 -0.05
0.2125 0.025 -0.05
0.225 0.025 -0.05
0.2375 0.025 -0.05
0.25 0.025 -0.05
0.2625 0.025 -0.05
0.275 0.025 -0.05
0.2875 0.025 -0.05
0.3 0.025 -0.05
0.3125 0.025 -0.05
0.325 0.025 -0.05
0.3375 0.025 -0.05
0.35 0.025 -0.05
0.3625 0.025 -0.05
0.375 0.025 -0.05
0.3875 0.025 -0.05
0.4 0.025 -0.05
0.4125 0.025 -0.05
0.425 0.025 -0.05
0.4375 0.025 -0.05
0.45 0.025 -0.05
0.4625 0.025 -0.05
0.475 0.025 -0.05
0.4875 0.025 -0.05
0.5 0.025 -0.05
0.5125 0.025 -0.05
0.525 0.025 -0.05
0.5375 0.025 -0.05
0.55 0.025 -0.05
0.5625 0.025 -0.05
0.575 0.025 -0.05
0.5875 0.025 -0.05
0.6 0.025 -0.05
0.0 0.0375 -0.05
0.0125 0.0375 -0.05
0.025 0.0375 -0.05
0.0375 0.0375 -0.05
0.05 0.0375 -0.05
0.0625 0.0375 -0.05
0.075 0.0375 -0.05
0.0875 0.0375 -0.05
0.1 0.0375 -0.05
0.1125 0.0375 -0.05
0.125 0.0375 -0.05
0.1375 0.0375 -0.05
0.15 0.0375 -0.05
0.1625 0.0375 -0.05
0.175 0.0375 -0.05
0.1875 0.0375 -0.05
0.2 0.0375 -0.05
0.2125 0.0375 -0.05
0.225 0.0375 -0.05
0.2375 0.0375 -0.05
0.25 0.0375 -0.05
0.2625 0.0375 -0.05
0.275 0.0375 -0.05
0.2875 0.0375 -0.05
0.3 0.0375 -0.05
0.3125 0.0375 -0.05
0.325 0.0375 -0.05
0.3375 0.0375 -0.05
0.35 0.0375 -0.05
0.3625 0.0375 -0.05
0.375 0.0375 -0.05
0.3875 0.0375 -0.05
0.4 0.0375 -0.05
0.4125 0.0375 -0.05
0.425 0.0375 -0.05
0.4375 0.0375 -0.05
0.45 0.0375 -0.05
0.4625 0.0375 -0.05
0.475 0.0375 -0.05
0.4875 0.0375 -0.05
0.5 0.0375 -0.05
0.5125 0.0375 -0.05
0.525 0.0375 -0.05
0.5375 0.0375 -0.05
0.55 0.0375 -0.05
0.5625 0.0375 -0.05
0.575 0.0375 -0.05
0.5875 0.0375 -0.05
0.6 0.0375 -0.05
0.0 0.05 -0.05
0.0125 0.05 -0.05
0.025 0.05 -0.05
0.0375 0.05 -0.05
0.05 0.05 -0.05
0.0625 0.05 -0.05
0.075 0.05 -0.05
0.0875 0.05 -0.05
0.1 0.05 -0.05
0.1125 0.05 -0.05
0.125 0.05 -0.05
0.1375 0.05 -0.05
0.15 0.05 -0.05
0.1625 0.05 -0.05
0.175 0.05 -0.05
0.1875 0.05 -0.05
0.2 0.05 -0.05
0.2125 0.05 -0.05
0.225 0.05 -0.05
0.2375 0.05 -0.05
0.25 0.05 -0.05
0.2625 0.05 -0.05
0.275 0.05 -0.05
0.2875 0.05 -0.05
0.3 0.05 -0.05
0.3125 0.05 -0.05
0.325 0.05 -0.05
0.3375 0.05 -0.05
0.35 0.05 -0.05
0.3625 0.05 -0.05
0.375 0.05 -0.05
0.3875 0.05 -0.05
0.4 0.05 -0.05
0.4125 0.05 -0.05
0.425 0.05 -0.05
0.4375 0.05 -0.05
0.45 0.05 -0.05
0.4625 0.05 -0.05
0.475 0.05 -0.05
0.4875 0.05 -0.05
0.5 0.05 -0.05
0.5125 0.05 -0.05
0.525 0.05 -0.05
0.5375 0.05 -0.05
0.55 0.05 -0.05
0.5625 0.05 -0.05
0.575 0.05 -0.05
0.5875 0.05 -0.05
0.6 0.05 -0.05
0.0 0.0625 -0.05
0.0125 0.0625 -0.05
0.025 0.0625 -0.05
0.0375 0.0625 -0.05
0.05 0.0625 -0.05
0.0625 0.0625 -0.05
0.075 0.0625 -0.05
0.0875 0.0625 -0.05
0.1 0.0625 -0.05
0.1125 0.0625 -0.05
0.125 0.0625 -0.05
0.1375 0.0625 -0.05
0.15 0.0625 -0.05
0.1625 0.0625 -0.05
0.175 0.0625 -0.05
0.1875 0.0625 -0.05
0.2 0.0625 -0.05
0.2125 0.0625 -0.05
0.225 0.0625 -0.05
0.2375 0.0625 -0.05
0.25 0.0625 -0.05
0.2625 0.0625 -0.05
0.275 0.0625 -0.05
0.2875 0.0625 -0.05
0.3 0.0625 -0.05
0.3125 0.0625 -0.05
0.325 0.0625 -0.05
0.3375 0.0625 -0.05
0.35 0.0625 -0.05
0.3625 0.0625 -0.05
0.375 0.0625 -0.05
0.3875 0.0625 -0.05
0.4 0.0625 -0.05
0.4125 0.0625 -0.05
0.425 0.0625 -0.05
0.4375 0.0625 -0.05
0.45 0.0625 -0.05
0.4625 0.0625 -0.05
0.475 0.0625 -0.05
0.4875 0.0625 -0.05
0.5 0.0625 -0.05
0.5125 0.0625 -0.05
0.525 0.0625 -0.05
0.5375 0.0625 -0.05
0.55 0.0625 -0.05
0.5625 0.0625 -0.05
0.575 0.0625 -0.05
0.5875 0.0625 -0.05
0.6 0.0625 -0.05
0.0 0.075 -0.05
0.0125 0.075 -0.05
0.025 0.075 -0.05
0.0375 0.075 -0.05
0.05 0.075 -0.05
0.0625 0.075 -0.05
0.075 0.075 -0.05
0.0875 0.075 -0.05
0.1 0.075 -0.05
0.1125 0.075 -0.05
0.125 0.075 -0.05
0.1375 0.075 -0.05
0.15 0.075 -0.05
0.1625 0.075 -0.05
0.175 0.075 -0.05
0.1875 0.075 -0.05
0.2 0.075 -0.05
0.2125 0.075 -0.05
0.225 0.075 -0.05
0.2375 0.075 -0.05
0.25 0.075 -0.05
0.2625 0.075 -0.05
0.275 0.075 -0.05
0.2875 0.075 -0.05
0.3 0.075 -0.05
0.3125 0.075 -0.05
0.325 0.075 -0.05
0.3375 0.075 -0.05
0.35 0.075 -0.05
0.3625 0.075 -0.05
0.375 0.075 -0.05
0.3875 0.075 -0.05
0.4 0.075 -0.05
0.4125 0.075 -0.05
0.425 0.075 -0.05
0.4375 0.075 -0.05
0.45 0.075 -0.05
0.4625 0.075 -0.05
0.475 0.075 -0.05
0.4875 0.075 -0.05
0.5 0.075 -0.05
0.5125 0.075 -0.05
0.525 0.075 -0.05
0.5375 0.075 -0.05
0.55 0.075 -0.05
0.5625 0.075 -0.05
0.575 0.075 -0.05
0.5875 0.075 -0.05
0.6 0.075 -0.05
0.0 0.0875 -0.05
0.0125 0.0875 -0.05
0.025 0.0875 -0.05
0.0375 0.0875 -0.05
0.05 0.0875 -0.05
0.0625 0.0875 -0.05
0.075 0.0875 -0.05
0.0875 0.0875 -0.05
0.1 0.0875 -0.05
0.1125 0.0875 -0.05
0.125 0.0875 -0.05
0.1375 0.0875 -0.05
0.15 0.0875 -0.05
0.1625 0.0875 -0.05
0.175 0.0875 -0.05
0.1875 0.0875 -0.05
0.2 0.0875 -0.05
0.2125 0.0875 -0.05
0.225 0.0875 -0.05
0.2375 0.0875 -0.05
0.25 0.0875 -0.05
0.2625 0.0875 -0.05
0.275 0.0875 -0.05
0.2875 0.0875 -0.05
0.3 0.0875 -0.05
0.3125 0.0875 -0.05
0.325 0.0875 -0.05
0.3375 0.0875 -0.05
0.35 0.0875 -0.05
0.3625 0.0875 -0.05
0.375 0.0875 -0.05
0.3875 0.0875 -0.05
0.4 0.0875 -0.05
0.4125 0.0875 -0.05
0.425 0.0875 -0.05
0.4375 0.0875 -0.05
0.45 0.0875 -0.05
0.4625 0.0875 -0.05
0.475 0.0875 -0.05
0.4875 0.0875 -0.05
0.5 0.0875 -0.05
0.5125 0.0875 -0.05
0.525 0.0875 -0.05
0.5375 0.0875 -0.05
0.55 0.0875 -0.05
0.5625 0.0875 -0.05
0.575 0.0875 -0.05
0.5875 0.0875 -0.05
0.6 0.0875 -0.05
0.0 0.1 -0.05
0.0125 0.1 -0.05
0.025 0.1 -0.05
0.0375 0.1 -0.05
0.05 0.1 -0.05
0.0625 0.1 -0.05
0.075 0.1 -0.05
0.0875 0.1 -0.05
0.1 0.1 -0.05
0.1125 0.1 -0.05
0.125 0.1 -0.05
0.1375 0.1 -0.05
0.15 0.1 -0.05
0.1625 0.1 -0.05
0.175 0.1 -0.05
0.1875 0.1 -0.05
0.2 0.1 -0.05
0.2125 0.1 -0.05
0.225 0.1 -0.05
0.2375 0.1 -0.05
0.25 0.1 -0.05
0.2625 0.1 -0.05
0.275 0.1 -0.05
0.2875 0.1 -0.05
0.3 0.1 -0.05
0.3125 0.1 -0.05
0.325 0.1 -0.05
0.3375 0.1 -0.05
0.35 0.1 -0.05
0.3625 0.1 -0.05
0.375 0.1 -0.05
0.3875 0.1 -0.05
0.4 0.1 -0.05
0.4125 0.1 -0.05
0.425 0.1 -0.05
0.4375 0.1 -0.05
0.45 0.1 -0.05
0.4625 0.1 -0.05
0.475 0.1 -0.05
0.4875 0.1 -0.05
0.5 0.1 -0.05
0.5125 0.1 -0.05
0.525 0.1 -0.05
0.5375 0.1 -0.05
0.55 0.1 -0.05
0.5625 0.1 -0.05
0.575 0.1 -0.05
0.5875 0.1 -0.05
0.6 0.1 -0.05
0.0 0.1125 -0.05
0.0125 0.1125 -0.05
0.025 0.1125 -0.05
0.0375 0.1125 -0.05
0.05 0.1125 -0.05
0.0625 0.1125 -0.05
0.075 0.1125 -0.05
0.0875 0.1125 -0.05
0.1 0.1125 -0.05
0.1125 0.1125 -0.05
0.125 0.1125 -0.05
0.1375 0.1125 -0.05
0.15 0.1125 -0.05
0.1625 0.1125 -0.05
0.175 0.1125 -0.05
0.1875 0.1125 -0.05
0.2 0.1125 -0.05
0.2125 0.1125 -0.05
0.225 0.1125 -0.05
0.2375 0.1125 -0.05
0.25 0.1125 -0.05
0.2625 0.1125 -0.05
0.275 0.1125 -0.05
0.2875 0.1125 -0.05
0.3 0.1125 -0.05
0.3125 0.1125 -0.05
0.325 0.1125 -0.05
0.3375 0.1125 -0.05
0.35 0.1125 -0.05
0.3625 0.1125 -0.05
0.375 0.1125 -0.05
0.3875 0.1125 -0.05
0.4 0.1125 -0.05
0.4125 0.1125 -0.05
0.425 0.1125 -0.05
0.4375 0.1125 -0.05
0.45 0.1125 -0.05
0.4625 0.1125 -0.05
0.475 0.1125 -0.05
0.4875 0.1125 -0.05
0.5 0.1125 -0.05
0.5125 0.1125 -0.05
0.525 0.1125 -0.05
0.5375 0.1125 -0.05
0.55 0.1125 -0.05
0.5625 0.1125 -0.05
0.575 0.1125 -0.05
0.5875 0.1125 -0.05
0.6 0.1125 -0.05
0.0 0.125 -0.05
0.0125 0.125 -0.05
0.025 0.125 -0.05
0.0375 0.125 -0.05
0.05 0.125 -0.05
0.0625 0.125 -0.05
0.075 0.125 -0.05
0.0875 0.125 -0.05
0.1 0.125 -0.05
0.1125 0.125 -0.05
0.125 0.125 -0.05
0.1375 0.125 -0.05
0.15 0.125 -0.05
0.1625 0.125 -0.05
0.175 0.125 -0.05
0.1875 0.125 -0.05
0.2 0.125 -0.05
0.2125 0.125 -0.05
0.225 0.125 -0.05
0.2375 0.125 -0.05
0.25 0.125 -0.05
0.2625 0.125 -0.05
0.275 0.125 -0.05
0.2875 0.125 -0.05
0.3 0.125 -0.05
0.3125 0.125 -0.05
0.325 0.125 -0.05
0.3375 0.125 -0.05
0.35 0.125 -0.05
0.3625 0.125 -0.05
0.375 0.125 -0.05
0.3875 0.125 -0.05
0.4 0.125 -0.05
0.4125 0.125 -0.05
0.425 0.125 -0.05
0.4375 0.125 -0.05
0.45 0.125 -0.05
0.4625 0.125 -0.05
0.475 0.125 -0.05
0.4875 0.125 -0.05
0.5 0.125 -0.05
0.5125 0.125 -0.05
0.525 0.125 -0.05
0.5375 0.125 -0.05
0.55 0.125 -0.05
0.5625 0.125 -0.05
0.575 0.125 -0.05
0.5875 0.125 -0.05
0.6 0.125 -0.05
0.0 0.1375 -0.05
0.0125 0.1375 -0.05
0.025 0.1375 -0.05
0.0375 0.1375 -0.05
0.05 0.1375 -0.05
0.0625 0.1375 -0.05
0.075 0.1375 -0.05
0.0875 0.1375 -0.05
[...]
CELL_DATA 16128
SCALARS P float 1
LOOKUP_TABLE default
99999.99515764687
100000.00733084013
99999.98805785745
100000.01850755233
99999.97058384102
100000.04576692506
99999.92846618012
100000.1103501034
99999.83102250415
100000.2541630554
99999.62744311616
100000.52004621054
99999.34393630603
100000.62356905814
100000.07365500314
99997.09395703903
100012.08642756815
99960.41165456522
100119.43136430837
99653.67672414705
101001.06290975047
97205.60661866167
108350.70888481983
78238.31702240364
197435.68029474048
644318.2924126295
1.0091696392960552e6
1.0527111538259126e6
1.0584141161030289e6
1.0715302303073837e6
1.0823881074420337e6
1.0933094048156845e6
1.1036511317016203e6
1.1135970263318166e6
1.1230749645201813e6
1.1321217480706351e6
1.1406762909958696e6
1.148797267624949e6
1.1563286067971918e6
1.1634627113118821e6
1.1697693633169509e6
1.1758835216275493e6
1.180569367207492e6
1.1858475925155832e6
1.1880380207514714e6
1.1934479199841472e6
1.1908833079909682e6
1.199860173077452e6
99999.99528051047
100000.00715187138
99999.98846052535
100000.01780176799
99999.97197861275
100000.04320165615
99999.9332930355
100000.10148366346
99999.84721697897
100000.2250692274
99999.67881323046
100000.43143400694
99999.49201998493
100000.38718181167
100000.42466118924
99996.64012992503
100012.49644660355
99960.60530867249
100117.0479542256
99662.52349289565
100975.21173709854
97271.90049560486
108174.73427994997
78572.84932695529
195096.46908003584
641555.9530145281
1.0110426248668344e6
1.0573406144179297e6
1.0634080196397067e6
1.0769463583550598e6
1.0879751729996614e6
1.0990162671878105e6
1.1094469912270145e6
1.11947867073867e6
1.1290470405729774e6
1.1381921810227744e6
1.1468525220288706e6
1.155084972305568e6
1.1627300619583013e6
1.1699771230565181e6
1.1763900686150421e6
1.1826016209166027e6
1.1873648650486842e6
1.1927067700851052e6
1.194917065488991e6
1.2003547016757666e6
1.1977011875634966e6
1.2067773299162455e6
99999.99487820169
100000.00795975143
99999.98711395157
100000.02029539658
99999.96761865725
100000.0510745681
99999.91929784762
100000.12660165587
99999.80228166842
100000.30571758117
99999.53402890747
100000.69185865582
99999.02281175976
100001.23492938474
99998.88711794319
99999.44729998759
100007.32220966411
99970.3001356986
100098.44938362022
99699.3607920294
100897.87643034427
97436.03134692556
107757.08746348899
79412.53127225813
188370.65769292312
629481.1109476247
1.00404136215673e6
1.054353259629817e6
1.0594531622700156e6
1.072836236335875e6
1.083630883915894e6
1.0944957118472813e6
1.1047568478828287e6
1.114621672973398e6
1.1240198759905018e6
1.1329899333146284e6
1.1414715637007204e6
1.1495225540799224e6
1.1569881699290965e6
1.1640581139081179e6
1.170305549270214e6
1.1763593314405212e6
1.1809900895684885e6
1.1862118734391348e6
1.188338727622207e6
1.1937247615944475e6
1.1909929784041035e6
1.2002253377996592e6
99999.99435324453
100000.00902479258
99999.98534706955
100000.02356484869
99999.96191710893
100000.06133327722
99999.90113585349
100000.15902314751
99999.74463566832
100000.40843609949
99999.35108473936
100001.01812869194
99998.43997996463
100002.27979010566
99997.00285411284
100002.88159900805
100000.95978788409
99982.4013101996
100074.56239808709
99748.73716620091
100788.24666425322
97683.32083493321
107094.3268829614
80831.21838615855
178580.98244703567
612606.3660781226
996961.2122372611
1.0546014454975296e6
1.0589440255232896e6
1.0726094617919016e6
1.0834293480314717e6
1.0943232401805099e6
1.104585045612749e6
1.114442152425448e6
1.1238302805647487e6
1.132792934408867e6
1.1412739169502675e6
1.1493322537831713e6
1.1568164963248214e6
1.163914110044535e6
1.170202669827022e6
1.1763029097183142e6
1.1809919278255263e6
1.186270237571625e6
1.1884464800193766e6
1.1939029097134701e6
1.19110907629816e6
1.2005937099759504e6
99999.99381634542
100000.0101186686
99999.98353976617
100000.02690632237
99999.95610648756
100000.07176245519
99999.88272666538
100000.19178813374
99999.68655119448
100000.5116652657
99999.16757980609
100001.34521411746
99997.85470203585
100003.33450169957
99995.08049380039
100006.4493317297
99994.1593867567
99995.8592522633
100046.58351437065
99810.02474412047
100644.02482783835
98026.76278967941
106143.00557271737
82980.52121110685
165929.41454569082
589212.3261544788
985550.6995104811
1.0531625802410685e6
1.0561315125452718e6
1.0697837838630215e6
1.080370847196866e6
1.0910767080144598e6
1.1011458103519022e6
1.1108105828122217e6
1.120005047999371e6
1.1287721770172007e6
1.1370576437534373e6
1.1449203386840206e6
1.1522133130341547e6
1.1591218973499015e6
1.165232782780817e6
1.1711586394020258e6
1.1756937968541859e6
1.180824293408661e6
1.1828723651797592e6
1.1882533999604615e6
1.1852812776751835e6
1.195026983267044e6
99999.9933825211
100000.01100645306
99999.9820806627
100000.02960284203
99999.95143519924
100000.08012972219
99999.8680005557
100000.21794988665
99999.64023445638
100000.59400753459
99999.02084462825
100001.60830080125
99997.37882597098
100004.20739009242
99993.44555211223
100009.60343628777
99987.82525838054
100009.20905818095
100016.7895171478
99879.88179683339
100469.45446366756
98464.64476471551
104899.42720287471
85946.43576581965
151220.99569049416
559975.054628688
970700.03848289
1.0519912041145011e6
1.0536238183024444e6
1.0673914033838883e6
1.0778496329302562e6
1.0884460213670658e6
1.0983896282338484e6
1.1079209136141876e6
1.1169782829131298e6
1.1256076492992535e6
1.133759735483257e6
1.1414954278889268e6
1.1486743359903132e6
1.1554807891150198e6
1.1615117416671545e6
1.1673715379951252e6
1.1718693488470959e6
1.1769755760919098e6
1.1790093573313262e6
1.1844343734914737e6
1.181334524817537e6
1.191456023312246e6
99999.99313911471
100000.01151150129
99999.98126021493
100000.03112066627
99999.94882875477
100000.08478256382
99999.85986689819
100000.23235198078
99999.6147988165
100000.63933142975
99998.93943535876
100001.75677897452
99997.1021881651
100004.73859367406
99992.38346059107
100011.83190528996
99982.88053647109
100020.77428347107
99988.24257416866
99952.7370191687
100274.60822626158
98981.11596243524
103399.54354848829
89743.57429366908
135235.1111888944
524798.3892349369
951070.9373003582
1.0500188333699317e6
1.0503120519481583e6
1.064025334390234e6
1.0742561076625425e6
1.0846313425719962e6
1.0943463521513941e6
1.1036396480472786e6
1.1124530675514753e6
1.120832305490989e6
1.1287312247295135e6
1.136210515430303e6
1.1431347009943102e6
1.149684859114944e6
1.155467108834577e6
1.1610761220070056e6
1.165337589037304e6
1.1702123412820806e6
1.17202150281372e6
1.1773148692335077e6
1.1739080744766472e6
1.1844239258124211e6
99999.99312747332
100000.0115529633
99999.98120947264
100000.03122364171
99999.94869206384
100000.08500321564
99999.85958920029
100000.23273739616
99999.61430179005
100000.64025286076
99998.9369484474
100001.76526512108
99997.07289880907
100004.83546828959
99992.07588380775
100012.77207874935
99980.0651033576
100029.01726575798
99964.21958340563
100021.54007225102
100075.41946295125
99541.84018934912
101737.64096423388
94228.77649361553
118987.71712354723
484089.9011061183
926034.0479591045
1.0473021710658376e6
1.046748856015441e6
1.06029986349861e6
1.0703336818000327e6
1.0804800191033725e6
1.0899617084725879e6
1.0990063104970532e6
1.1075627637309565e6
1.11567736308378e6
1.12330925458146e6
1.1305214320370578e6
1.137187011697704e6
1.1434884674521133e6
1.1490471553754164e6
1.1544543548922243e6
1.1585574734389097e6
1.1633106317809138e6
1.1650257208673735e6
1.170340280778008e6
1.1667191661576242e6
1.1777894316195718e6
99999.99333762498
100000.01115749359
99999.98188007767
100000.03001268981
99999.950835457
100000.08115326034
99999.86650266923
100000.22030814902
99999.63662787758
100000.60037913563
99999.00749382674
100001.64274338381
99997.27889693847
100004.50963215705
99992.52680679123
100012.35660734324
99979.65169383552
100033.0765767591
99947.25104863437
100079.30728790564
99891.43897005719
100095.22873769164
100065.75363129636
99053.12158322612
103646.578265034
438396.6243650542
894543.4455050123
1.0432127424578712e6
1.0428152130246432e6
1.0559382697503637e6
1.0657568704183951e6
1.0756025785634804e6
1.08478570299005e6
1.093508807814091e6
1.1017292826833876e6
1.1094911489956295e6
1.1167560300475294e6
1.1235851940716335e6
1.1298546019044893e6
1.1357411142686969e6
1.1408711088982183e6
1.145824585147058e6
1.1494576920300578e6
1.1537276554350457e6
1.154926405768991e6
1.1598746245315233e6
1.1556105174038059e6
1.167218488579831e6
99999.99371772796
100000.01044077823
99999.98307420203
100000.02787215088
99999.95456217206
100000.07452914973
99999.878238061
100000.19939562168
99999.67392080843
100000.53386745091
99999.12578942112
100001.433825622
99997.64279180515
100003.89197788296
99993.52426103153
100010.90347610768
99981.244100342
100033.19776606784
99938.21995216802
100120.9283268216
99742.11764856768
100578.6907078119
98577.01888374037
103644.91296561729
90517.02038507911
388654.44531834015
855639.8426968959
1.0370786643022605e6
1.0386997986626314e6
1.0510516850989978e6
1.0606804916875113e6
1.0701812954009157e6
1.0790285942830548e6
1.0873852306753465e6
1.0952201708763319e6
1.1025752637687046e6
1.109416492770607e6
1.115806897070557e6
1.1216316263133355e6
1.1270719758654814e6
1.1317749481866434e6
1.136327445925042e6
1.1396194645408578e6
1.1436201486410217e6
1.1446152456433005e6
1.149554427541941e6
1.1449797216339512e6
1.1574191286834837e6
99999.99419571258
100000.00956223294
99999.98452016941
100000.02532766439
99999.95891688105
100000.06691532618
99999.89150638696
100000.17608372627
99999.71496683348
100000.46134599921
99999.2540244827
100001.20745421767
99998.03986143314
100003.20537785186
99994.6780370403
100009.07317680187
99983.7957512901
100030.82958054758
99935.86169034075
100144.78321839847
99641.91974082522
100931.39000664502
97468.94100955474
107281.6155795952
80905.30308614264
336186.5603646073
808386.0097761634
1.027833486554104e6
1.034474761362208e6
1.0455980354201811e6
1.055056888506015e6
1.0641518086023033e6
1.0726063508843374e6
1.0805285543156909e6
1.087899164827119e6
1.094753960820833e6
1.1010576527384792e6
1.1068666783006678e6
1.1120613187332219e6
1.1168086771869585e6
1.1207445353854909e6
1.1244322191512408e6
1.1267372774097575e6
1.1296410679082219e6
1.1293422006428896e6
1.1331689674763535e6
1.126954365563132e6
1.1399899749635921e6
99999.99470632843
100000.00866580836
99999.98597298292
100000.02285264987
99999.96303541228
100000.05993445966
99999.90328934477
100000.15602023262
99999.7492033727
100000.40258813831
99999.35520025202
100001.03273311177
99998.34152256175
100002.68735353024
99995.55482636574
100007.63894405478
99985.97986732319
100028.08111805674
99937.36440313843
100152.67249586321
99597.46665324026
101107.7343554121
96902.09394260572
109244.85726477468
75884.57461993367
282735.6246569354
752097.5637154388
1.0140828168443966e6
1.0302210651780352e6
1.039617395937336e6
1.048929521742343e6
1.057566972471682e6
1.065577882918712e6
1.0730057154692116e6
1.079843755145328e6
1.0861217911243003e6
1.0918049213088846e6
1.0969476594567732e6
1.10143613526408e6
1.1054417851994426e6
1.1086255963952225e6
1.1115701777234944e6
1.113204158421292e6
1.1155436449219263e6
1.1148511500043496e6
1.1185428113121984e6
1.1119819691654528e6
1.1261261703191693e6
99999.99521386494
100000.00782782178
99999.98730432965
100000.0206910271
99999.96647430236
100000.05441849401
99999.91202904873
100000.14215626555
99999.7710106788
100000.36836416183
99999.40858444035
100000.94968444831
99998.47044848543
100002.48690746426
99995.86921195991
100007.13970045534
99986.80048170482
100026.7064385079
99939.85979360032
100148.30709491986
99606.52679819257
101092.9664802303
96940.24449177286
109177.27091112091
75922.54847060861
230368.8006745228
686527.9136345583
994071.4437942143
1.025901974407153e6
1.0331567540883468e6
1.0423125218219078e6
1.0504413734137672e6
1.0579495929776668e6
1.0648134536371287e6
1.0710342294806982e6
1.0766303333567008e6
1.0815573319028714e6
1.0858525103561638e6
1.0893798418127738e6
1.092273678155559e6
1.0941412534743377e6
1.0954914691435273e6
1.0951184060581983e6
1.0949947578921185e6
1.0910244811858474e6
1.091347834801863e6
1.0797843882525614e6
1.093832437642467e6
99999.995721338
100000.00703360973
99999.98854411684
100000.01877199537
99999.96937754814
100000.05007577715
99999.91829105114
100000.133423128
99999.78235461618
100000.35516862904
99999.42021629478
100000.94839387831
99998.44177379271
100002.58378413638
99995.64016629398
100007.58251456461
99986.14382774931
100027.13538159487
99941.99689235877
100135.31197217401
99659.04882629504
100912.23319467378
97511.65029921527
107306.39948423846
80616.97453997232
181431.5671271924
612083.0436951957
965723.840438745
1.0212579387923916e6
1.0263152494344773e6
1.035238282481757e6
1.0428176458714328e6
1.0497652802752338e6
1.056001333991118e6
1.0615298481685822e6
1.0663574212223613e6
1.070430618805506e6
1.0737738619766724e6
1.0762439479280117e6
1.0779655558870218e6
1.0785645945572043e6
1.0785637842447597e6
1.076878824167921e6
1.0754838446462562e6
1.0707171728077894e6
1.0701449187759846e6
1.0585777352570733e6
1.0718651765845255e6
99999.99626152581
100000.00619568725
99999.98985045822
100000.01676535506
99999.97238363152
100000.04565028478
99999.92450563848
100000.12513882997
99999.79219346556
100000.34598322329
99999.42219648365
100000.96887067446
99998.36632926774
100002.77650645166
99995.22510960927
100008.35712404459
99984.97967020002
100028.03391898725
99944.8829464542
100115.42000410275
99740.78930339016
100624.43752121017
98421.89606151018
104316.35969304758
88637.79717943675
138639.71009219423
530070.6871894617
926693.5188040269
1.0155864205029263e6
1.0192241929845135e6
1.0277296411229029e6
1.0347320571791467e6
1.0410607297974884e6
1.0466050131738922e6
1.0513609345074084e6
1.0553172522701554e6
1.0583987755110997e6
1.0605962136905617e6
1.0617175069981033e6
1.0618083109098359e6
1.0603632403057935e6
1.05769840158616e6
1.052334422293644e6
1.0458170376530493e6
1.0331521762854981e6
1.022537417249261e6
993183.701833208
999676.0879686357
99999.99687286829
100000.0052087646
99999.99141481704
100000.0142677779
99999.97628268202
100000.03956823473
99999.93376564172
100000.11124435537
99999.81234191981
100000.3178861207
99999.45878549022
100000.92620320931
99998.40570241869
100002.76118234325
99995.1855357394
100008.45510909277
99985.03225697165
100026.72208899252
99951.81001326704
100087.77848427472
99837.76560976947
100303.46670519287
99418.72575009387
101142.86386589413
97721.12964191644
105068.27427842852
443007.4773397691
874527.1691935892
1.0074663780979569e6
1.0120213241671352e6
1.0198040309062887e6
1.0262246461948535e6
1.0318853201427298e6
1.0366856852549864e6
1.0406046883108354e6
1.0436122971660366e6
1.0456106402011976e6
1.046557921784076e6
1.0462269709786797e6
1.0446091221467179e6
1.0411730238155081e6
1.0361574931030035e6
1.0282296016139081e6
1.0187404588668296e6
1.0039842529521398e6
989125.3687660664
960991.5619955575
927930.6760329443
99999.99757061023
100000.00401861446
99999.99334130634
100000.01104464958
99999.98155933402
100000.03082200215
99999.948132443
100000.08755606336
99999.85123691947
100000.25397882123
99999.5636409746
100000.7538175324
99998.69051044395
100002.28446382655
99996.00472926792
100006.97899895131
99987.89601246394
100020.60238776967
99966.27854917916
100050.41750837231
99939.93739313073
100011.86497185049
100261.17428771775
98652.0288678963
105124.84416247808
83597.25909195039
354858.5570975982
807181.41165519
994538.1976294816
1.0047903248789291e6
1.0114787720634729e6
1.0173354494726715e6
1.022292790158578e6
1.026307927768954e6
1.0293354101074226e6
1.0313235350576461e6
1.0321430773843698e6
1.0317046470756556e6
1.0297123132146766e6
1.0260383921578918e6
1.0199681762359974e6
1.0113488300725012e6
998190.4817754466
980245.9482207305
950794.1149207788
907961.1545503661
822522.9006398412
671202.7751104069
99999.99832705047
100000.00267159077
99999.99555812831
100000.00721151884
99999.98804020247
100000.01966903108
99999.9672577049
100000.05449010272
99999.90855043667
100000.15403861056
99999.73876251024
100000.44502863381
99999.23864579348
100001.30354251676
99997.77742914736
100003.73485837756
99993.93133982267
100009.12329606788
99988.75679732853
100004.69530980398
100037.36930845391
99793.17516996602
100783.0073123857
97366.94164739855
108644.64067922224
75421.42332942401
270670.3336918901
723963.6675517395
973607.3025958814
997510.7907723926
1.0028184224581819e6
1.0081252027939089e6
1.0123571235760452e6
1.0155585762329705e6
1.0176590645086303e6
1.0185850111758835e6
1.0181762543815732e6
1.0162933430406163e6
1.0125802588028429e6
1.0068003411002675e6
998101.683879804
986066.9132766402
968413.7746139603
944213.7050648592
906519.1990342911
851945.6518732102
756876.2206816858
601274.9074178205
99999.99907167625
100000.00131723317
99999.99781058502
100000.00325311412
99999.99484580367
100000.00774641913
99999.9881151359
100000.01767461342
99999.97380916584
100000.0375908223
99999.94771546926
100000.06784770578
99999.92319427994
100000.05497064188
100000.06378562939
99999.53775530143
100001.63658686186
99995.03264502379
100014.27042752206
99959.51337721708
100114.2364611135
99674.49932630513
100930.19365554374
97342.82968327941
107906.52747402244
78727.23083197659
195662.12329596438
626165.7203018821
940923.8524320984
989889.670251373
993974.521222276
998683.6765829234
1.0021720354189156e6
1.0045398336077472e6
1.005694463008513e6
1.005541620726347e6
1.003889316273068e6
1.0005584100522646e6
995136.6037844138
987306.1626415845
976119.5297433431
961011.8206709552
939594.7924768047
910808.1388395199
868092.3738136195
809204.6041697857
715183.5673422305
582529.8069777224
99999.9997128924
100000.00015794506
99999.99974786288
99999.99985213878
100000.000708632
99999.99746539374
100000.00614157137
99999.98579567188
100000.03045039704
99999.93629400789
100000.1298783273
99999.73847146668
100000.52142365549
99998.9650470179
100002.05102984715
99995.92579944049
100008.13954087775
99983.56917240226
100033.64968478624
99929.62567191693
100150.80539906186
99666.27188708844
100763.31716231864
98197.65109341923
104521.1141222602
89018.1994277679
135082.44189060875
517215.197098451
892208.3715456943
980803.7811115682
985124.0494819966
989096.1435503958
991830.0544622755
993356.5746953859
993567.148100216
992347.1224213765
989479.5612632424
984754.4742158622
977723.0309651108
968022.2736582131
954662.8509630845
937054.8440521004
912843.1400728679
881212.6716654395
836150.6987141676
777356.1914722351
689022.6147595964
578476.0010386795
100000.00017206457
99999.99936758593
100000.00106609122
99999.99760194839
100000.00452020798
99999.99094518692
100000.0173029041
99999.96657791919
100000.06364964478
99999.87867863673
100000.23021898659
99999.56319173648
100000.82798268787
99998.4298044386
100002.97889597656
99994.34466050802
100010.73800283569
99979.62539575575
100038.54104261716
99927.5562739704
100134.23576434383
99757.41851026974
100415.12511674533
99362.95212777235
100707.85179333232
100362.48517496492
94338.19414047235
403339.57186857215
823052.8059841582
967479.2168687237
976301.7176152263
979400.0046698919
981398.3616341779
982100.4772823548
981393.9900671429
979146.6793575577
975127.9785948024
969108.13898238
960622.4532572374
949296.7259893096
934148.4543630087
914642.8697614084
888561.6829387057
855453.020734279
810003.6963215305
753378.8569084242
672801.6401704202
579304.310221433
100000.0004137725
99999.99901916929
100000.00163649464
99999.99674832771
100000.00582671001
99999.98904009874
100000.01999712733
99999.96304406159
100000.06769151433
99999.87558750299
100000.228121185
99999.58125375447
100000.76822639948
99998.59059359829
100002.5824144877
99995.28086455421
100008.57325184527
99984.59785486758
100027.08227341805
99954.27122123085
100070.85986446991
99911.07306542547
100032.65589836544
100337.36347389247
98145.3138120423
107334.02674600326
76491.14429077765
293722.3001617106
731029.2037084446
945338.888193427
967292.731653876
969620.4560952669
970933.9698074854
970855.6314123005
969281.4295359437