# vtk DataFile Version 2.0
JuliaCFD
ASCII
DATASET UNSTRUCTURED_GRID

POINTS 32898 float
0.0 0.0 -0.05
0.0125 0.0 -0.05
0.025 0.0 -0.05
0.0375 0.0 -0.05
0.05 0.0 -0.05
0.0625 0.0 -0.05
0.075 0.0 -0.05
0.0875 0.0 -0.05
0.1 0.0 -0.05
0.1125 0.0 -0.05
0.125 0.0 -0.05
0.1375 0.0 -0.05
0.15 0.0 -0.05
0.1625 0.0 -0.05
0.175 0.0 -0.05
0.1875 0.0 -0.05
0.2 0.0 -0.05
0.2125 0.0 -0.05
0.225 0.0 -0.05
0.2375 0.0 -0.05
0.25 0.0 -0.05
0.2625 0.0 -0.05
0.275 0.0 -0.05
0.2875 0.0 -0.05
0.3 0.0 -0.05
0.3125 0.0 -0.05
0.325 0.0 -0.05
0.3375 0.0 -0.05
0.35 0.0 -0.05
0.3625 0.0 -0.05
0.375 0.0 -0.05
0.3875 0.0 -0.05
0.4 0.0 -0.05
0.4125 0.0 -0.05
0.425 0.0 -0.05
0.4375 0.0 -0.05
0.45 0.0 -0.05
0.4625 0.0 -0.05
0.475 0.0 -0.05
0.4875 0.0 -0.05
0.5 0.0 -0.05
0.5125 0.0 -0.05
0.525 0.0 -0.05
0.5375 0.0 -0.05
0.55 0.0 -0.05
0.5625 0.0 -0.05
0.575 0.0 -0.05
0.5875 0.0 -0.05
0.6 0.0 -0.05
0.0 0.0125 -0.05
0.0125 0.0125 -0.05
0.025 0.0125 -0.05
0.0375 0.0125 -0.05
0.05 0.0125 -0.05
0.0625 0.0125 -0.05
0.075 0.0125 -0.05
0.0875 0.0125 -0.05
0.1 0.0125 -0.05
0.1125 0.0125 -0.05
0.125 0.0125 -0.05
0.1375 0.0125 -0.05
0.15 0.0125 -0.05
0.1625 0.0125 -0.05
0.175 0.0125 -0.05
0.1875 0.0125 -0.05
0.2 0.0125 -0.05
0.2125 0.0125 -0.05
0.225 0.0125 -0.05
0.2375 0.0125 -0.05
0.25 0.0125 -0.05
0.2625 0.0125 -0.05
0.275 0.0125 -0.05
0.2875 0.0125 -0.05
0.3 0.0125 -0.05
0.3125 0.0125 -0.05
0.325 0.0125 -0.05
0.3375 0.0125 -0.05
0.35 0.0125 -0.05
0.3625 0.0125 -0.05
0.375 0.0125 -0.05
0.3875 0.0125 -0.05
0.4 0.0125 -0.05
0.4125 0.0125 -0.05
0.425 0.0125 -0.05
0.4375 0.0125 -0.05
0.45 0.0125 -0.05
0.4625 0.0125 -0.05
0.475 0.0125 -0.05
0.4875 0.0125 -0.05
0.5 0.0125 -0.05
0.5125 0.0125 -0.05
0.525 0.0125 -0.05
0.5375 0.0125 -0.05
0.55 0.0125 -0.05
0.5625 0.0125 -0.05
0.575 0.0125 -0.05
0.5875 0.0125 -0.05
0.6 0.0125 -0.05
0.0 0.025 -0.05
0.0125 0.025 -0.05
0.025 0.025 -0.05
0.0375 0.025 -0.05
0.05 0.025 -0.05
0.0625 0.025 -0.05
0.075 0.025 -0.05
0.0875 0.025 -0.05
0.1 0.025 -0.05
0.1125 0.025 -0.05
0.125 0.025 -0.05
0.1375 0.025 -0.05
0.15 0.025 -0.05
0.1625 0.025 -0.05
0.175 0.025 -0.05
0.1875 0.025 -0.05
0.2 0.025 -0.05
0.2125 0.025 -0.05
0.225 0.025 -0.05
0.2375 0.025 -0.05
0.25 0.025 -0.05
0.2625 0.025 -0.05
0.275 0.025 -0.05
0.2875 0.025 -0.05
0.3 0.025 -0.05
0.3125 0.025 -0.05
0.325 0.025 -0.05
0.3375 0.025 -0.05
0.35 0.025 -0.05
0.3625 0.025 -0.05
0.375 0.025 -0.05
0.3875 0.025 -0.05
0.4 0.025 -0.05
0.4125 0.025 -0.05
0.425 0.025 -0.05
0.4375 0.025 -0.05
0.45 0.025 -0.05
0.4625 0.025 -0.05
0.475 0.025 -0.05
0.4875 0.025 -0.05
0.5 0.025 -0.05
0.5125 0.025 -0.05
0.525 0.025 -0.05
0.5375 0.025 -0.05
0.55 0.025 -0.05
0.5625 0.025 -0.05
0.575 0.025 -0.05
0.5875 0.025 -0.05
0.6 0.025 -0.05
0.0 0.0375 -0.05
0.0125 0.0375 -0.05
0.025 0.0375 -0.05
0.0375 0.0375 -0.05
0.05 0.0375 -0.05
0.0625 0.0375 -0.05
0.075 0.0375 -0.05
0.0875 0.0375 -0.05
0.1 0.0375 -0.05
0.1125 0.0375 -0.05
0.125 0.0375 -0.05
0.1375 0.0375 -0.05
0.15 0.0375 -0.05
0.1625 0.0375 -0.05
0.175 0.0375 -0.05
0.1875 0.0375 -0.05
0.2 0.0375 -0.05
0.2125 0.0375 -0.05
0.225 0.0375 -0.05
0.2375 0.0375 -0.05
0.25 0.0375 -0.05
0.2625 0.0375 -0.05
0.275 0.0375 -0.05
0.2875 0.0375 -0.05
0.3 0.0375 -0.05
0.3125 0.0375 -0.05
0.325 0.0375 -0.05
0.3375 0.0375 -0.05
0.35 0.0375 -0.05
0.3625 0.0375 -0.05
0.375 0.0375 -0.05
0.3875 0.0375 -0.05
0.4 0.0375 -0.05
0.4125 0.0375 -0.05
0.425 0.0375 -0.05
0.4375 0.0375 -0.05
0.45 0.0375 -0.05
0.4625 0.0375 -0.05
0.475 0.0375 -0.05
0.4875 0.0375 -0.05
0.5 0.0375 -0.05
0.5125 0.0375 -0.05
0.525 0.0375 -0.05
0.5375 0.0375 -0.05
0.55 0.0375 -0.05
0.5625 0.0375 -0.05
0.575 0.0375 -0.05
0.5875 0.0375 -0.05
0.6 0.0375 -0.05
0.0 0.05 -0.05
0.0125 0.05 -0.05
0.025 0.05 -0.05
0.0375 0.05 -0.05
0.05 0.05 -0.05
0.0625 0.05 -0.05
0.075 0.05 -0.05
0.0875 0.05 -0.05
0.1 0.05 -0.05
0.1125 0.05 -0.05
0.125 0.05 -0.05
0.1375 0.05 -0.05
0.15 0.05 -0.05
0.1625 0.05 -0.05
0.175 0.05 -0.05
0.1875 0.05 -0.05
0.2 0.05 -0.05
0.2125 0.05 -0.05
0.225 0.05 -0.05
0.2375 0.05 -0.05
0.25 0.05 -0.05
0.2625 0.05 -0.05
0.275 0.05 -0.05
0.2875 0.05 -0.05
0.3 0.05 -0.05
0.3125 0.05 -0.05
0.325 0.05 -0.05
0.3375 0.05 -0.05
0.35 0.05 -0.05
0.3625 0.05 -0.05
0.375 0.05 -0.05
0.3875 0.05 -0.05
0.4 0.05 -0.05
0.4125 0.05 -0.05
0.425 0.05 -0.05
0.4375 0.05 -0.05
0.45 0.05 -0.05
0.4625 0.05 -0.05
0.475 0.05 -0.05
0.4875 0.05 -0.05
0.5 0.05 -0.05
0.5125 0.05 -0.05
0.525 0.05 -0.05
0.5375 0.05 -0.05
0.55 0.05 -0.05
0.5625 0.05 -0.05
0.575 0.05 -0.05
0.5875 0.05 -0.05
0.6 0.05 -0.05
0.0 0.0625 -0.05
0.0125 0.0625 -0.05
0.025 0.0625 -0.05
0.0375 0.0625 -0.05
0.05 0.0625 -0.05
0.0625 0.0625 -0.05
0.075 0.0625 -0.05
0.0875 0.0625 -0.05
0.1 0.0625 -0.05
0.1125 0.0625 -0.05
0.125 0.0625 -0.05
0.1375 0.0625 -0.05
0.15 0.0625 -0.05
0.1625 0.0625 -0.05
0.175 0.0625 -0.05
0.1875 0.0625 -0.05
0.2 0.0625 -0.05
0.2125 0.0625 -0.05
0.225 0.0625 -0.05
0.2375 0.0625 -0.05
0.25 0.0625 -0.05
0.2625 0.0625 -0.05
0.275 0.0625 -0.05
0.2875 0.0625 -0.05
0.3 0.0625 -0.05
0.3125 0.0625 -0.05
0.325 0.0625 -0.05
0.3375 0.0625 -0.05
0.35 0.0625 -0.05
0.3625 0.0625 -0.05
0.375 0.0625 -0.05
0.3875 0.0625 -0.05
0.4 0.0625 -0.05
0.4125 0.0625 -0.05
0.425 0.0625 -0.05
0.4375 0.0625 -0.05
0.45 0.0625 -0.05
0.4625 0.0625 -0.05
0.475 0.0625 -0.05
0.4875 0.0625 -0.05
0.5 0.0625 -0.05
0.5125 0.0625 -0.05
0.525 0.0625 -0.05
0.5375 0.0625 -0.05
0.55 0.0625 -0.05
0.5625 0.0625 -0.05
0.575 0.0625 -0.05
0.5875 0.0625 -0.05
0.6 0.0625 -0.05
0.0 0.075 -0.05
0.0125 0.075 -0.05
0.025 0.075 -0.05
0.0375 0.075 -0.05
0.05 0.075 -0.05
0.0625 0.075 -0.05
0.075 0.075 -0.05
0.0875 0.075 -0.05
0.1 0.075 -0.05
0.1125 0.075 -0.05
0.125 0.075 -0.05
0.1375 0.075 -0.05
0.15 0.075 -0.05
0.1625 0.075 -0.05
0.175 0.075 -0.05
0.1875 0.075 -0.05
0.2 0.075 -0.05
0.2125 0.075 -0.05
0.225 0.075 -0.05
0.2375 0.075 -0.05
0.25 0.075 -0.05
0.2625 0.075 -0.05
0.275 0.075 -0.05
0.2875 0.075 -0.05
0.3 0.075 -0.05
0.3125 0.075 -0.05
0.325 0.075 -0.05
0.3375 0.075 -0.05
0.35 0.075 -0.05
0.3625 0.075 -0.05
0.375 0.075 -0.05
0.3875 0.075 -0.05
0.4 0.075 -0.05
0.4125 0.075 -0.05
0.425 0.075 -0.05
0.4375 0.075 -0.05
0.45 0.075 -0.05
0.4625 0.075 -0.05
0.475 0.075 -0.05
0.4875 0.075 -0.05
0.5 0.075 -0.05
0.5125 0.075 -0.05
0.525 0.075 -0.05
0.5375 0.075 -0.05
0.55 0.075 -0.05
0.5625 0.075 -0.05
0.575 0.075 -0.05
0.5875 0.075 -0.05
0.6 0.075 -0.05
0.0 0.0875 -0.05
0.0125 0.0875 -0.05
0.025 0.0875 -0.05
0.0375 0.0875 -0.05
0.05 0.0875 -0.05
0.0625 0.0875 -0.05
0.075 0.0875 -0.05
0.0875 0.0875 -0.05
0.1 0.0875 -0.05
0.1125 0.0875 -0.05
0.125 0.0875 -0.05
0.1375 0.0875 -0.05
0.15 0.0875 -0.05
0.1625 0.0875 -0.05
0.175 0.0875 -0.05
0.1875 0.0875 -0.05
0.2 0.0875 -0.05
0.2125 0.0875 -0.05
0.225 0.0875 -0.05
0.2375 0.0875 -0.05
0.25 0.0875 -0.05
0.2625 0.0875 -0.05
0.275 0.0875 -0.05
0.2875 0.0875 -0.05
0.3 0.0875 -0.05
0.3125 0.0875 -0.05
0.325 0.0875 -0.05
0.3375 0.0875 -0.05
0.35 0.0875 -0.05
0.3625 0.0875 -0.05
0.375 0.0875 -0.05
0.3875 0.0875 -0.05
0.4 0.0875 -0.05
0.4125 0.0875 -0.05
0.425 0.0875 -0.05
0.4375 0.0875 -0.05
0.45 0.0875 -0.05
0.4625 0.0875 -0.05
0.475 0.0875 -0.05
0.4875 0.0875 -0.05
0.5 0.0875 -0.05
0.5125 0.0875 -0.05
0.525 0.0875 -0.05
0.5375 0.0875 -0.05
0.55 0.0875 -0.05
0.5625 0.0875 -0.05
0.575 0.0875 -0.05
0.5875 0.0875 -0.05
0.6 0.0875 -0.05
0.0 0.1 -0.05
0.0125 0.1 -0.05
0.025 0.1 -0.05
0.0375 0.1 -0.05
0.05 0.1 -0.05
0.0625 0.1 -0.05
0.075 0.1 -0.05
0.0875 0.1 -0.05
0.1 0.1 -0.05
0.1125 0.1 -0.05
0.125 0.1 -0.05
0.1375 0.1 -0.05
0.15 0.1 -0.05
0.1625 0.1 -0.05
0.175 0.1 -0.05
0.1875 0.1 -0.05
0.2 0.1 -0.05
0.2125 0.1 -0.05
0.225 0.1 -0.05
0.2375 0.1 -0.05
0.25 0.1 -0.05
0.2625 0.1 -0.05
0.275 0.1 -0.05
0.2875 0.1 -0.05
0.3 0.1 -0.05
0.3125 0.1 -0.05
0.325 0.1 -0.05
0.3375 0.1 -0.05
0.35 0.1 -0.05
0.3625 0.1 -0.05
0.375 0.1 -0.05
0.3875 0.1 -0.05
0.4 0.1 -0.05
0.4125 0.1 -0.05
0.425 0.1 -0.05
0.4375 0.1 -0.05
0.45 0.1 -0.05
0.4625 0.1 -0.05
0.475 0.1 -0.05
0.4875 0.1 -0.05
0.5 0.1 -0.05
0.5125 0.1 -0.05
0.525 0.1 -0.05
0.5375 0.1 -0.05
0.55 0.1 -0.05
0.5625 0.1 -0.05
0.575 0.1 -0.05
0.5875 0.1 -0.05
0.6 0.1 -0.05
0.0 0.1125 -0.05
0.0125 0.1125 -0.05
0.025 0.1125 -0.05
0.0375 0.1125 -0.05
0.05 0.1125 -0.05
0.0625 0.1125 -0.05
0.075 0.1125 -0.05
0.0875 0.1125 -0.05
0.1 0.1125 -0.05
0.1125 0.1125 -0.05
0.125 0.1125 -0.05
0.1375 0.1125 -0.05
0.15 0.1125 -0.05
0.1625 0.1125 -0.05
0.175 0.1125 -0.05
0.1875 0.1125 -0.05
0.2 0.1125 -0.05
0.2125 0.1125 -0.05
0.225 0.1125 -0.05
0.2375 0.1125 -0.05
0.25 0.1125 -0.05
0.2625 0.1125 -0.05
0.275 0.1125 -0.05
0.2875 0.1125 -0.05
0.3 0.1125 -0.05
0.3125 0.1125 -0.05
0.325 0.1125 -0.05
0.3375 0.1125 -0.05
0.35 0.1125 -0.05
0.3625 0.1125 -0.05
0.375 0.1125 -0.05
0.3875 0.1125 -0.05
0.4 0.1125 -0.05
0.4125 0.1125 -0.05
0.425 0.1125 -0.05
0.4375 0.1125 -0.05
0.45 0.1125 -0.05
0.4625 0.1125 -0.05
0.475 0.1125 -0.05
0.4875 0.1125 -0.05
0.5 0.1125 -0.05
0.5125 0.1125 -0.05
0.525 0.1125 -0.05
0.5375 0.1125 -0.05
0.55 0.1125 -0.05
0.5625 0.1125 -0.05
0.575 0.1125 -0.05
0.5875 0.1125 -0.05
0.6 0.1125 -0.05
0.0 0.125 -0.05
0.0125 0.125 -0.05
0.025 0.125 -0.05
0.0375 0.125 -0.05
0.05 0.125 -0.05
0.0625 0.125 -0.05
0.075 0.125 -0.05
0.0875 0.125 -0.05
0.1 0.125 -0.05
0.1125 0.125 -0.05
0.125 0.125 -0.05
0.1375 0.125 -0.05
0.15 0.125 -0.05
0.1625 0.125 -0.05
0.175 0.125 -0.05
0.1875 0.125 -0.05
0.2 0.125 -0.05
0.2125 0.125 -0.05
0.225 0.125 -0.05
0.2375 0.125 -0.05
0.25 0.125 -0.05
0.2625 0.125 -0.05
0.275 0.125 -0.05
0.2875 0.125 -0.05
0.3 0.125 -0.05
0.3125 0.125 -0.05
0.325 0.125 -0.05
0.3375 0.125 -0.05
0.35 0.125 -0.05
0.3625 0.125 -0.05
0.375 0.125 -0.05
0.3875 0.125 -0.05
0.4 0.125 -0.05
0.4125 0.125 -0.05
0.425 0.125 -0.05
0.4375 0.125 -0.05
0.45 0.125 -0.05
0.4625 0.125 -0.05
0.475 0.125 -0.05
0.4875 0.125 -0.05
0.5 0.125 -0.05
0.5125 0.125 -0.05
0.525 0.125 -0.05
0.5375 0.125 -0.05
0.55 0.125 -0.05
0.5625 0.125 -0.05
0.575 0.125 -0.05
0.5875 0.125 -0.05
0.6 0.125 -0.05
0.0 0.1375 -0.05
0.0125 0.1375 -0.05
0.025 0.1375 -0.05
0.0375 0.1375 -0.05
0.05 0.1375 -0.05
0.0625 0.1375 -0.05
0.075 0.1375 -0.05
0.0875 0.1375 -0.05
[...]
CELL_DATA 16128
SCALARS P float 1
LOOKUP_TABLE default
100000.00511495679
99999.99074961722
100000.01500251233
99999.97397345769
100000.04337740818
99999.92587824033
100000.12500256475
99999.78711744679
100000.36168679596
99999.38166820533
100001.06134789287
99998.16090008778
100003.22774725397
99994.2159661156
100010.6730715756
99979.45054608374
100041.69229798009
99909.84208735776
100207.74772866566
99493.05771770583
101311.26637572084
96585.45156978958
109850.32076757516
75508.95623499963
234187.51127580865
698321.9873013746
1.0247532625708989e6
1.04973147091462e6
1.0588503760286209e6
1.071098509704798e6
1.0821003013781153e6
1.0929084434322785e6
1.1032124443791518e6
1.1131038748097538e6
1.1225386806398886e6
1.1315445176892548e6
1.140063057779443e6
1.1481514329217752e6
1.1556538133198908e6
1.1627617870677474e6
1.1690455321775577e6
1.1751386944630211e6
1.179807156097909e6
1.1850682607052347e6
1.187247461899199e6
1.1926428123783234e6
1.1900767348612044e6
1.1990393096191625e6
100000.00513375462
99999.99079494033
100000.01505835072
99999.97393097355
100000.04365669959
99999.92534636386
100000.12629250316
99999.78456432157
100000.36682097257
99999.37200968587
100001.07901802103
99998.13015057557
100003.2784068994
99994.13954603368
100010.77205561475
99979.3690788873
100041.61997909175
99910.48538697507
100205.53424170785
99499.45185033663
101295.10801551068
96623.6951850166
109758.69596351885
75654.43937683712
231583.51577824407
695921.9149540729
1.02715295857198e6
1.0543949458919032e6
1.0638859430413465e6
1.076516553007243e6
1.0876790143542218e6
1.0986011869852245e6
1.1089924101709344e6
1.1189695273653187e6
1.128495344462608e6
1.137600370408628e6
1.1462255540818132e6
1.1544261821398456e6
1.1620429841536738e6
1.1692644667070927e6
1.1756549378250055e6
1.181845816619677e6
1.1865919124277465e6
1.19191686822604e6
1.1941160852928062e6
1.1995392772739963e6
1.196884459494587e6
1.2059462432570849e6
100000.00422051625
99999.9924716313
100000.01229612764
99999.97880011443
100000.03540132313
99999.9396896988
100000.10167945946
99999.82716936804
100000.29330537732
99999.49929023776
100000.85869869059
99998.5121818146
100002.6155495191
99995.29146350031
100008.7683186787
99982.8640990202
100035.51311294618
99921.22810293306
100186.53320233397
99533.55128685765
101232.17020333698
96739.55010336924
109507.20513476987
76037.00546710707
223938.20530276402
684030.139001997
1.0209992450521501e6
1.0513636357428182e6
1.0599180120033517e6
1.0724071944662775e6
1.0833384104184688e6
1.0940887228174543e6
1.104311339743233e6
1.114122323631496e6
1.12347801365424e6
1.1324079192921945e6
1.1408542858813286e6
1.148873396014415e6
1.1563107148511151e6
1.1633551466175949e6
1.1695802220611179e6
1.175613517098799e6
1.1802273010273955e6
1.185432367780711e6
1.187548234948263e6
1.1929200125667502e6
1.1901868657105225e6
1.199404944354404e6
100000.0029773148
99999.99476341254
100000.00853349404
99999.98542487618
100000.0241905187
99999.95912232985
100000.06840963694
99999.88458888682
100000.1945390687
99999.66965491194
100000.56499847402
99999.01919222847
100001.7398996744
99996.80640180202
100006.14282973023
99987.43521607608
100027.51285125304
99935.41334325296
100160.9911753273
99580.91402107252
101139.92676073896
96922.60075578315
109069.49216652049
76812.14342672013
212794.9088909934
667638.2452336242
1.015378118799271e6
1.0516150595424068e6
1.0594245673703388e6
1.0721957760229544e6
1.083141463011018e6
1.0939190810743724e6
1.1041394560786153e6
1.1139418326259383e6
1.123286873757115e6
1.1322093291944524e6
1.1406551765804768e6
1.1486818969393112e6
1.1561381374900483e6
1.1632105430677838e6
1.1694769994331005e6
1.1755569821908614e6
1.1802291548284371e6
1.1854908800216676e6
1.1876561109872293e6
1.1930983822865502e6
1.1903030685068336e6
1.199773525053238e6
100000.00155740856
99999.99737180195
100000.00426207898
99999.99291951652
100000.011542483
99999.9809751744
100000.03110233223
99999.9487867843
100000.08440420272
99999.8591755102
100000.23887855677
99999.58157353013
100000.76838347958
99998.49096533647
100003.20752521719
99992.59778946129
100018.3188529728
99952.16570230627
100129.5582131918
99642.52494860858
101011.02614833617
97199.05104590568
108357.5556545595
78214.09913082872
198246.12199841344
644716.8739154193
1.0059107877531106e6
1.050202174937864e6
1.0565886692034262e6
1.0693777047071457e6
1.0800810329644007e6
1.090675519893486e6
1.100702825343158e6
1.1103139494760486e6
1.119465741403144e6
1.1281932299405274e6
1.1364440320116698e6
1.1442756148341578e6
1.1515410845148864e6
1.1584249823059267e6
1.1645142658583915e6
1.1704203912578e6
1.174939143278795e6
1.180053539039174e6
1.1820908498118995e6
1.1874581216912374e6
1.1844844704233422e6
1.1942163098885852e6
100000.0001321897
99999.99996523562
100000.00002689239
100000.0003037936
99999.9991348049
100000.002303581
99999.99485075641
100000.01090694255
99999.97821285254
100000.04140966655
99999.92578742366
100000.12157102874
99999.83306585676
100000.12289960144
100000.3309877649
99997.75294387309
100008.86724216556
99970.1110825979
100093.94906235208
99717.10702530121
100842.9047469756
97584.71147433159
107310.7690339723
80451.7834189453
181104.1339524688
615903.3236159725
993578.07378913
1.049175498724172e6
1.0540480843118827e6
1.0670079245076096e6
1.0775622600796125e6
1.0880510655136784e6
1.097950046804246e6
1.107427570561844e6
1.1164418230039252e6
1.1250316416273916e6
1.1331492735473653e6
1.140854233940756e6
1.14800607480982e6
1.1547883278871977e6
1.1607981352170403e6
1.1666386597632645e6
1.1711204007386419e6
1.1762108900860532e6
1.1782340149826978e6
1.1836455664305934e6
1.180544017019551e6
1.1906520111790944e6
99999.9988529665
100000.00225263205
99999.99630544479
100000.00671974396
99999.98843538118
100000.02052741476
99999.96413082683
100000.06312871314
99999.88958584874
100000.19259881676
99999.66711648786
100000.56711080516
99999.05920467056
100001.48507618385
99997.88752632789
100002.26033728561
100000.23459173046
99987.48311898997
100056.89007325615
99800.88460555131
100639.51334290316
98082.38856536544
105904.96309859036
83687.07072585786
162110.63658854784
580919.7779807162
977012.3053608828
1.0475268965154659e6
1.0506583096985528e6
1.0636680286030767e6
1.0739665227333084e6
1.0842416180983777e6
1.093909757420808e6
1.1031501481960076e6
1.1119205732898968e6
1.1202608052088302e6
1.1281258092663544e6
1.1355750216364858e6
1.1424728234873211e6
1.1489995150516157e6
1.1547613360089106e6
1.1603518236544756e6
1.164597857691409e6
1.1694575518099463e6
1.171256433458214e6
1.1765368693907908e6
1.1731282857035892e6
1.1836311484230426e6
99999.99782523842
100000.00403432718
99999.99342430463
100000.01158539134
99999.9804382078
100000.03390135062
99999.94198017335
100000.10010997181
99999.82792966237
100000.29607743048
99999.49251570602
100000.86515380847
99998.54215292758
100002.405157729
99996.19005171175
100005.54911624885
99993.46453021988
100002.36774992754
100021.88317337545
99887.42828268818
100412.74340447693
98674.17950057295
104182.48881876787
87943.44396874495
142265.3159763599
540004.4682674895
955580.910835653
1.0454300155958191e6
1.0469661721709612e6
1.0599820522805396e6
1.070042471238702e6
1.0800977539671843e6
1.0895292571371319e6
1.0985214969867195e6
1.107034766580687e6
1.1151107281714713e6
1.1227091427539315e6
1.1298918508284967e6
1.1365317166753814e6
1.142810437947092e6
1.148349405857394e6
1.153738798846649e6
1.1578270633565078e6
1.1625657618845354e6
1.16427083895461e6
1.169572964555193e6
1.1659498816997847e6
1.1770077394913468e6
99999.99709391859
100000.00523290357
99999.9915071237
100000.01469359033
99999.97548554586
100000.04184606562
99999.92938697764
100000.1201264904
99999.796308983
100000.34626041538
99999.41240534816
100000.99576829217
99998.32094674897
100002.80497114005
99995.39862965074
100007.28480078185
99989.27264828158
100013.20144641078
99992.44453147976
99968.78136093939
100181.2840868931
99318.49037042985
102265.11518138235
93033.0803310133
122733.57831718074
493493.7852651506
928179.7728645613
1.0423906132842029e6
1.0428316760459966e6
1.055670446851211e6
1.0654609896728434e6
1.0752271679907788e6
1.0843566585763027e6
1.0930283290989466e6
1.1012057269511137e6
1.1089296099169236e6
1.1161617169479316e6
1.1229622720464924e6
1.1292068874080046e6
1.1350716607915924e6
1.1401829358433434e6
1.14511965351738e6
1.148738863666789e6
1.1529953656522532e6
1.1541847820481292e6
1.1591212888701244e6
1.154855192129232e6
1.1664514504329243e6
99999.9966438275
100000.00589433905
99999.99047135463
100000.01622212831
99999.97324037564
100000.04501655571
99999.9251257183
100000.12545025203
99999.79059535866
100000.35051406558
99999.41393744182
100000.98069944186
99998.36039116852
100002.73740274666
99995.44553237135
100007.51943123947
99987.74935585438
100019.35414995631
99970.97622532026
100037.41843070839
99968.05116874087
99951.59746203235
100350.15770598313
98494.58545917687
104877.56255142824
442111.9158231312
893744.853379565
1.0379046256084258e6
1.0384369289578267e6
1.0508461396259307e6
1.0603787369502771e6
1.0698128500549982e6
1.0786027289655162e6
1.0869088471833766e6
1.0947008726089848e6
1.1020187222606e6
1.108828001754433e6
1.1151907924154839e6
1.1209917890194298e6
1.1264115177010174e6
1.1310968600299542e6
1.1356336729873703e6
1.1389127151813144e6
1.142900796205107e6
1.143887046910855e6
1.1488153337955761e6
1.144238469318443e6
1.1566669091724777e6
99999.99641602971
100000.00615589564
99999.99008103473
100000.0166377007
99999.97284769913
100000.04502425907
99999.9262173674
100000.12159635454
99999.80065374642
100000.32736861189
99999.4634816571
100000.88040579717
99998.55326125414
100002.38886944017
99996.01737679343
100006.75108761081
99988.19517902355
100021.53675863576
99957.81122716978
100088.34549056659
99795.12337319966
100498.0106830078
98678.85600249843
103596.96495405117
90177.41058803328
386996.56625807687
851155.0993962889
1.0310844641833834e6
1.0338593048227445e6
1.0454610724962227e6
1.0547468110710322e6
1.0637882982404423e6
1.072181998540553e6
1.080054815267567e6
1.0873830010581252e6
1.0942015828941963e6
1.1004744604865937e6
1.1062571882778353e6
1.111429506840988e6
1.1161577553639202e6
1.120077540859614e6
1.123751175967376e6
1.1260448881810426e6
1.128937794720483e6
1.1286316315609615e6
1.1324484843394978e6
1.1262320743845447e6
1.1392575921044436e6
99999.99633575385
100000.00618722936
99999.99004594453
100000.01650826004
99999.9732672191
100000.04383050141
99999.9290148745
100000.11537621022
99999.81380462545
100000.30039913251
99999.5173339879
100000.77555693767
99998.75167727376
100002.02752455292
99996.63679946413
100005.8043682834
99989.26653283865
100021.70273388519
99950.94529591329
100120.6504081719
99677.82790979983
100888.02584441142
97482.43597417632
107461.43309379891
80045.14515412104
329769.90187777503
799440.6855877559
1.0207020322115609e6
1.0292167888522968e6
1.0395444353169883e6
1.0486093106278998e6
1.0572054356492448e6
1.0651531082998142e6
1.0725328624044352e6
1.0793293033009176e6
1.0855724014328814e6
1.0912261192985745e6
1.0963441414282396e6
1.1008119691262236e6
1.1048002598285205e6
1.1079697253448232e6
1.1109019351832836e6
1.112526139743582e6
1.1148558326477602e6
1.1141569763080482e6
1.1178407901597733e6
1.1112778058284945e6
1.1254124838935514e6
99999.9963429128
100000.00612279733
99999.9901372021
100000.01627887198
99999.97368302291
100000.04297704557
99999.93063200884
100000.11223247625
99999.81978373809
100000.28900250254
99999.53883001997
100000.73539127219
99998.82528971606
100001.8971750756
99996.8531230302
100005.49510106827
99989.54095818101
100022.1596398217
99947.19546297399
100136.69102061947
99622.28853331805
101073.85632868895
96929.79124234463
109288.45052884959
75495.21489649737
272505.26218643045
737984.0802251272
1.0051189047532002e6
1.0245567306311761e6
1.0331209771627911e6
1.0419801411803238e6
1.0500772797337535e6
1.0575220207938529e6
1.0643394214469385e6
1.070519841707266e6
1.0760825388019064e6
1.0809818042601217e6
1.0852541557451964e6
1.0887628955083692e6
1.09164160996072e6
1.0934972363448252e6
1.0948376429776542e6
1.0944575999379095e6
1.0943277842785427e6
1.0903543909335204e6
1.0906714869627059e6
1.0791083834588686e6
1.0931478016970104e6
99999.99641385257
100000.00601109363
99999.99027543397
100000.0160966699
99999.97383293441
100000.04295056207
99999.93016209413
100000.11389129059
99999.81526695171
100000.299671998
99999.51516467662
100000.78535441741
99998.72333268364
100002.09906095853
99996.4652828378
100006.21735833991
99988.25999522718
100024.30334764652
99944.13142311237
100139.95302433048
99624.92470419109
101047.73558431589
97055.53877844088
108831.31912276411
76687.42976517031
217577.00411870604
666764.0144933314
982335.6759723676
1.0197992770858743e6
1.0262669812982471e6
1.0348970057437452e6
1.042448391812087e6
1.0493344895874767e6
1.0555255098173388e6
1.0610149553458062e6
1.0658105944801983e6
1.06985775004493e6
1.0731801271066028e6
1.0756337972559202e6
1.077342697640172e6
1.0779321998574405e6
1.077924291777724e6
1.0762346435621397e6
1.0748358844963624e6
1.0700674036242412e6
1.0694920025606696e6
1.0579246787977354e6
1.0712075727530152e6
99999.99656512207
100000.00580349672
99999.99055132997
100000.01576652513
99999.97410084338
100000.04298840938
99999.92908747387
100000.11750150517
99999.80567805757
100000.32221647611
99999.46526559084
100000.89080546726
99998.50809916666
100002.52379920537
99995.65848954603
100007.67464747021
99985.84519856087
100027.67716317873
99941.68571807307
100132.81260507746
99674.48706401575
100847.89018861775
97731.80909781055
106528.22428014813
82735.90952082817
167639.13483598575
586575.2112556709
950022.3498034539
1.014553126326778e6
1.0190983375601718e6
1.027393637096195e6
1.034360540324629e6
1.0406302638306466e6
1.0461296622316872e6
1.050847109573006e6
1.0547723910409003e6
1.0578291987505239e6
1.0600075314716892e6
1.0611145811632276e6
1.0611953237974527e6
1.0597438674453527e6
1.0570755650090026e6
1.0517113260022593e6
1.045195618219187e6
1.0325360103708621e6
1.0219252805340819e6
992582.3483067353
999067.5954720826
99999.99683688328
100000.0053908463
99999.99116317021
100000.01487178664
99999.97529947489
100000.04147903707
99999.9305573285
100000.11693291621
99999.80288518399
100000.33379471491
99999.43285019122
100000.96868672594
99998.33596722565
100002.88073167836
99994.96265476495
100008.92952870815
99983.86781635412
100029.90206591156
99942.59293249286
100115.13907359212
99756.43586094971
100546.3207944138
98710.38937790708
103288.8474225997
91709.25040684066
125747.05932235524
499308.4435474924
905593.0363005081
1.0078447074239481e6
1.0117565063523953e6
1.0194984484079125e6
1.0258597939718756e6
1.0314623251153133e6
1.0362158302327765e6
1.0400957295791882e6
1.0430722845052363e6
1.0450465730371795e6
1.0459760226250387e6
1.0456327153479847e6
1.0440072288988753e6
1.0405676961181827e6
1.0355521374577018e6
1.027627609242673e6
1.0181440047707806e6
1.003396248071679e6
988546.1231082726
960423.2558804848
927389.1154780698
99999.99726271877
100000.0046741798
99999.99229366863
100000.01301910177
99999.97821265814
100000.03683830294
99999.937728631
100000.10592188974
99999.81925534937
100000.310119443
99999.46539444459
100000.92677158093
99998.38473678922
100002.83085640345
99995.01353996657
100008.82081738178
99984.35483666588
100027.73383579518
99951.0916190906
100084.86910675245
99857.1205502023
100222.67032398579
99704.58464836716
100178.08916616731
100788.3658145348
95220.45489576936
408314.2557337716
846492.6818581878
997799.2448445866
1.0043548664660805e6
1.0112273013421288e6
1.0169867488535892e6
1.0218837216126128e6
1.0258484661499859e6
1.0288354080131769e6
1.0307918834927193e6
1.0315875975508869e6
1.0311321725372795e6
1.0291291046923975e6
1.0254499255635672e6
1.0193794204482852e6
1.0107642082898213e6
997614.8803358563
979683.8838263159
950253.821638961
907449.7502044244
822068.7590699983
670824.1283626532
99999.99783979071
100000.00363733081
99999.99398186956
100000.01009738958
99999.98310068066
100000.0284755936
99999.95189308889
100000.08171154933
99999.86058405037
100000.23917950485
99999.58753447515
100000.71507837142
99998.75467531651
100002.17590406531
99996.19556032473
100006.62574606854
99988.59903842988
100019.07735472143
99969.89800181598
100041.12367666472
99965.283618273
99939.93008823042
100471.52775067616
98036.42820695486
107041.91737482112
78572.81570237999
318480.292613909
771011.6310233505
981520.7341354846
996919.6618137603
1.002609310169223e6
1.0077892356160418e6
1.0119599919037082e6
1.0151094880990189e6
1.0171691773271277e6
1.0180636291067322e6
1.0176316092781668e6
1.015732879171666e6
1.0120106965215742e6
1.006227902619389e6
997532.1732162464
985505.7545430899
967867.2952060783
943687.8874618171
906025.4166715434
851492.2092150134
756495.7380820964
600981.8240080014
99999.99851444994
100000.00238422862
99999.99605570597
100000.00641793759
99999.98942385924
100000.01734990237
99999.97136277168
100000.04729079097
99999.92159042873
100000.13030999436
99999.78279402372
100000.36265852227
99999.39458936799
100001.0062947162
99998.34782971532
100002.63626803893
99996.05168494728
100005.03538194478
99996.60883240752
99989.77485782249
100065.30841016839
99742.9138756997
100869.04398289323
97246.4508758708
108731.14189257864
75685.17064974314
235456.81160632675
679340.6688987241
955367.5036595815
989324.099730403
993745.9931055483
998343.4523673306
1.001776525069104e6
1.00409583540105e6
1.0052121116172783e6
1.005029701489818e6
1.0033558223606283e6
1.0000109976621033e6
994582.2585472326
986751.5234181216
975571.0310945455
960475.6024386118
939078.0981528452
910317.6299421759
867640.2680326295
808798.8468837533
714852.7507783598
582282.5701620774
99999.99919193966
100000.00111803303
99999.99816676759
100000.00264864198
99999.99595811732
100000.00576223768
99999.9918330857
100000.01076757479
99999.98696986216
100000.01248998647
99999.99617530887
99999.97406278888
100000.10556352671
99999.7003385232
100000.7524450135
99998.20843183434
100004.1742566677
99990.28893311048
100022.81822945423
99945.20506027646
100134.65590080482
99658.70506890364
100886.66559457556
97653.50012901887
106538.06129428186
83009.45062646628
164755.94633457827
573913.350727046
915179.6983127394
980965.8806190261
984818.8050643118
988748.4983119513
991432.8084750912
992915.5095085094
993090.6818983989
991843.5104347477
988956.7999094116
984220.1490051678
977184.3674376948
967486.177390101
954136.1559092562
936544.1252296221
912356.0710000079
880756.1168580602
835736.4678652715
776991.3294102764
688730.2768287899
578259.8275899878
99999.99976703776
100000.00006836942
99999.99991755055
99999.99955949397
100000.0012767661
99999.9964219109
100000.00818030324
99999.98189672596
100000.03810252478
99999.92137871649
100000.1592073836
99999.68100193936
100000.63403933166
99998.74570907542
100002.47467365071
99995.12057505826
100009.6299608969
99980.94249888105
100037.85518840254
99924.37183488128
100151.88108077695
99692.58918602137
100625.02372035812
98724.79196738146
102646.07251189777
94788.37991547937
112064.0332662861
459688.90082503663
856277.6835803826
969954.656675391
975949.1189977403
979071.8534197086
981010.8479907633
981667.3544033739
980925.3136229839
978651.8143502899
974615.7637478268
968586.6158684181
960099.1906328121
948778.9237839202
933643.2229496833
914157.0184344748
888102.956325847
855028.1803009713
809623.5496094476
753049.4738126429
672541.2050834419
579113.9937179922
100000.00016152799
99999.99940141766
100000.00102004148
99999.99770316864
100000.0043616778
99999.99124968535
100000.01679494715
99999.96750992759
100000.06202163007
99999.88168215987
100000.22467764905
99999.57388537408
100000.80675569408
99998.47392896611
100002.88330274183
99994.56151436432
100010.22489003412
99980.88994316057
100035.31397322268
99936.05329441061
100111.29910729411
99820.61628398612
100237.73972877862
99865.58280208132
99251.41356252701
104628.16404364552
82303.97430058267
344941.63696004084
774728.0923842548
952424.584960819
967013.5852559773
969328.0396824753
970564.3789584563
970433.8679223291
968821.9447325529