# vtk DataFile Version 2.0
JuliaCFD
ASCII
DATASET UNSTRUCTURED_GRID

POINTS 32898 float
0.0 0.0 -0.05
0.0125 0.0 -0.05
0.025 0.0 -0.05
0.0375 0.0 -0.05
0.05 0.0 -0.05
0.0625 0.0 -0.05
0.075 0.0 -0.05
0.0875 0.0 -0.05
0.1 0.0 -0.05
0.1125 0.0 -0.05
0.125 0.0 -0.05
0.1375 0.0 -0.05
0.15 0.0 -0.05
0.1625 0.0 -0.05
0.175 0.0 -0.05
0.1875 0.0 -0.05
0.2 0.0 -0.05
0.2125 0.0 -0.05
0.225 0.0 -0.05
0.2375 0.0 -0.05
0.25 0.0 -0.05
0.2625 0.0 -0.05
0.275 0.0 -0.05
0.2875 0.0 -0.05
0.3 0.0 -0.05
0.3125 0.0 -0.05
0.325 0.0 -0.05
0.3375 0.0 -0.05
0.35 0.0 -0.05
0.3625 0.0 -0.05
0.375 0.0 -0.05
0.3875 0.0 -0.05
0.4 0.0 -0.05
0.4125 0.0 -0.05
0.425 0.0 -0.05
0.4375 0.0 -0.05
0.45 0.0 -0.05
0.4625 0.0 -0.05
0.475 0.0 -0.05
0.4875 0.0 -0.05
0.5 0.0 -0.05
0.5125 0.0 -0.05
0.525 0.0 -0.05
0.5375 0.0 -0.05
0.55 0.0 -0.05
0.5625 0.0 -0.05
0.575 0.0 -0.05
0.5875 0.0 -0.05
0.6 0.0 -0.05
0.0 0.0125 -0.05
0.0125 0.0125 -0.05
0.025 0.0125 -0.05
0.0375 0.0125 -0.05
0.05 0.0125 -0.05
0.0625 0.0125 -0.05
0.075 0.0125 -0.05
0.0875 0.0125 -0.05
0.1 0.0125 -0.05
0.1125 0.0125 -0.05
0.125 0.0125 -0.05
0.1375 0.0125 -0.05
0.15 0.0125 -0.05
0.1625 0.0125 -0.05
0.175 0.0125 -0.05
0.1875 0.0125 -0.05
0.2 0.0125 -0.05
0.2125 0.0125 -0.05
0.225 0.0125 -0.05
0.2375 0.0125 -0.05
0.25 0.0125 -0.05
0.2625 0.0125 -0.05
0.275 0.0125 -0.05
0.2875 0.0125 -0.05
0.3 0.0125 -0.05
0.3125 0.0125 -0.05
0.325 0.0125 -0.05
0.3375 0.0125 -0.05
0.35 0.0125 -0.05
0.3625 0.0125 -0.05
0.375 0.0125 -0.05
0.3875 0.0125 -0.05
0.4 0.0125 -0.05
0.4125 0.0125 -0.05
0.425 0.0125 -0.05
0.4375 0.0125 -0.05
0.45 0.0125 -0.05
0.4625 0.0125 -0.05
0.475 0.0125 -0.05
0.4875 0.0125 -0.05
0.5 0.0125 -0.05
0.5125 0.0125 -0.05
0.525 0.0125 -0.05
0.5375 0.0125 -0.05
0.55 0.0125 -0.05
0.5625 0.0125 -0.05
0.575 0.0125 -0.05
0.5875 0.0125 -0.05
0.6 0.0125 -0.05
0.0 0.025 -0.05
0.0125 0.025 -0.05
0.025 0.025 -0.05
0.0375 0.025 -0.05
0.05 0.025 -0.05
0.0625 0.025 -0.05
0.075 0.025 -0.05
0.0875 0.025 -0.05
0.1 0.025 -0.05
0.1125 0.025 -0.05
0.125 0.025 -0.05
0.1375 0.025 -0.05
0.15 0.025 -0.05
0.1625 0.025 -0.05
0.175 0.025 -0.05
0.1875 0.025 -0.05
0.2 0.025 -0.05
0.2125 0.025 -0.05
0.225 0.025 -0.05
0.2375 0.025 -0.05
0.25 0.025 -0.05
0.2625 0.025 -0.05
0.275 0.025 -0.05
0.2875 0.025 -0.05
0.3 0.025 -0.05
0.3125 0.025 -0.05
0.325 0.025 -0.05
0.3375 0.025 -0.05
0.35 0.025 -0.05
0.3625 0.025 -0.05
0.375 0.025 -0.05
0.3875 0.025 -0.05
0.4 0.025 -0.05
0.4125 0.025 -0.05
0.425 0.025 -0.05
0.4375 0.025 -0.05
0.45 0.025 -0.05
0.4625 0.025 -0.05
0.475 0.025 -0.05
0.4875 0.025 -0.05
0.5 0.025 -0.05
0.5125 0.025 -0.05
0.525 0.025 -0.05
0.5375 0.025 -0.05
0.55 0.025 -0.05
0.5625 0.025 -0.05
0.575 0.025 -0.05
0.5875 0.025 -0.05
0.6 0.025 -0.05
0.0 0.0375 -0.05
0.0125 0.0375 -0.05
0.025 0.0375 -0.05
0.0375 0.0375 -0.05
0.05 0.0375 -0.05
0.0625 0.0375 -0.05
0.075 0.0375 -0.05
0.0875 0.0375 -0.05
0.1 0.0375 -0.05
0.1125 0.0375 -0.05
0.125 0.0375 -0.05
0.1375 0.0375 -0.05
0.15 0.0375 -0.05
0.1625 0.0375 -0.05
0.175 0.0375 -0.05
0.1875 0.0375 -0.05
0.2 0.0375 -0.05
0.2125 0.0375 -0.05
0.225 0.0375 -0.05
0.2375 0.0375 -0.05
0.25 0.0375 -0.05
0.2625 0.0375 -0.05
0.275 0.0375 -0.05
0.2875 0.0375 -0.05
0.3 0.0375 -0.05
0.3125 0.0375 -0.05
0.325 0.0375 -0.05
0.3375 0.0375 -0.05
0.35 0.0375 -0.05
0.3625 0.0375 -0.05
0.375 0.0375 -0.05
0.3875 0.0375 -0.05
0.4 0.0375 -0.05
0.4125 0.0375 -0.05
0.425 0.0375 -0.05
0.4375 0.0375 -0.05
0.45 0.0375 -0.05
0.4625 0.0375 -0.05
0.475 0.0375 -0.05
0.4875 0.0375 -0.05
0.5 0.0375 -0.05
0.5125 0.0375 -0.05
0.525 0.0375 -0.05
0.5375 0.0375 -0.05
0.55 0.0375 -0.05
0.5625 0.0375 -0.05
0.575 0.0375 -0.05
0.5875 0.0375 -0.05
0.6 0.0375 -0.05
0.0 0.05 -0.05
0.0125 0.05 -0.05
0.025 0.05 -0.05
0.0375 0.05 -0.05
0.05 0.05 -0.05
0.0625 0.05 -0.05
0.075 0.05 -0.05
0.0875 0.05 -0.05
0.1 0.05 -0.05
0.1125 0.05 -0.05
0.125 0.05 -0.05
0.1375 0.05 -0.05
0.15 0.05 -0.05
0.1625 0.05 -0.05
0.175 0.05 -0.05
0.1875 0.05 -0.05
0.2 0.05 -0.05
0.2125 0.05 -0.05
0.225 0.05 -0.05
0.2375 0.05 -0.05
0.25 0.05 -0.05
0.2625 0.05 -0.05
0.275 0.05 -0.05
0.2875 0.05 -0.05
0.3 0.05 -0.05
0.3125 0.05 -0.05
0.325 0.05 -0.05
0.3375 0.05 -0.05
0.35 0.05 -0.05
0.3625 0.05 -0.05
0.375 0.05 -0.05
0.3875 0.05 -0.05
0.4 0.05 -0.05
0.4125 0.05 -0.05
0.425 0.05 -0.05
0.4375 0.05 -0.05
0.45 0.05 -0.05
0.4625 0.05 -0.05
0.475 0.05 -0.05
0.4875 0.05 -0.05
0.5 0.05 -0.05
0.5125 0.05 -0.05
0.525 0.05 -0.05
0.5375 0.05 -0.05
0.55 0.05 -0.05
0.5625 0.05 -0.05
0.575 0.05 -0.05
0.5875 0.05 -0.05
0.6 0.05 -0.05
0.0 0.0625 -0.05
0.0125 0.0625 -0.05
0.025 0.0625 -0.05
0.0375 0.0625 -0.05
0.05 0.0625 -0.05
0.0625 0.0625 -0.05
0.075 0.0625 -0.05
0.0875 0.0625 -0.05
0.1 0.0625 -0.05
0.1125 0.0625 -0.05
0.125 0.0625 -0.05
0.1375 0.0625 -0.05
0.15 0.0625 -0.05
0.1625 0.0625 -0.05
0.175 0.0625 -0.05
0.1875 0.0625 -0.05
0.2 0.0625 -0.05
0.2125 0.0625 -0.05
0.225 0.0625 -0.05
0.2375 0.0625 -0.05
0.25 0.0625 -0.05
0.2625 0.0625 -0.05
0.275 0.0625 -0.05
0.2875 0.0625 -0.05
0.3 0.0625 -0.05
0.3125 0.0625 -0.05
0.325 0.0625 -0.05
0.3375 0.0625 -0.05
0.35 0.0625 -0.05
0.3625 0.0625 -0.05
0.375 0.0625 -0.05
0.3875 0.0625 -0.05
0.4 0.0625 -0.05
0.4125 0.0625 -0.05
0.425 0.0625 -0.05
0.4375 0.0625 -0.05
0.45 0.0625 -0.05
0.4625 0.0625 -0.05
0.475 0.0625 -0.05
0.4875 0.0625 -0.05
0.5 0.0625 -0.05
0.5125 0.0625 -0.05
0.525 0.0625 -0.05
0.5375 0.0625 -0.05
0.55 0.0625 -0.05
0.5625 0.0625 -0.05
0.575 0.0625 -0.05
0.5875 0.0625 -0.05
0.6 0.0625 -0.05
0.0 0.075 -0.05
0.0125 0.075 -0.05
0.025 0.075 -0.05
0.0375 0.075 -0.05
0.05 0.075 -0.05
0.0625 0.075 -0.05
0.075 0.075 -0.05
0.0875 0.075 -0.05
0.1 0.075 -0.05
0.1125 0.075 -0.05
0.125 0.075 -0.05
0.1375 0.075 -0.05
0.15 0.075 -0.05
0.1625 0.075 -0.05
0.175 0.075 -0.05
0.1875 0.075 -0.05
0.2 0.075 -0.05
0.2125 0.075 -0.05
0.225 0.075 -0.05
0.2375 0.075 -0.05
0.25 0.075 -0.05
0.2625 0.075 -0.05
0.275 0.075 -0.05
0.2875 0.075 -0.05
0.3 0.075 -0.05
0.3125 0.075 -0.05
0.325 0.075 -0.05
0.3375 0.075 -0.05
0.35 0.075 -0.05
0.3625 0.075 -0.05
0.375 0.075 -0.05
0.3875 0.075 -0.05
0.4 0.075 -0.05
0.4125 0.075 -0.05
0.425 0.075 -0.05
0.4375 0.075 -0.05
0.45 0.075 -0.05
0.4625 0.075 -0.05
0.475 0.075 -0.05
0.4875 0.075 -0.05
0.5 0.075 -0.05
0.5125 0.075 -0.05
0.525 0.075 -0.05
0.5375 0.075 -0.05
0.55 0.075 -0.05
0.5625 0.075 -0.05
0.575 0.075 -0.05
0.5875 0.075 -0.05
0.6 0.075 -0.05
0.0 0.0875 -0.05
0.0125 0.0875 -0.05
0.025 0.0875 -0.05
0.0375 0.0875 -0.05
0.05 0.0875 -0.05
0.0625 0.0875 -0.05
0.075 0.0875 -0.05
0.0875 0.0875 -0.05
0.1 0.0875 -0.05
0.1125 0.0875 -0.05
0.125 0.0875 -0.05
0.1375 0.0875 -0.05
0.15 0.0875 -0.05
0.1625 0.0875 -0.05
0.175 0.0875 -0.05
0.1875 0.0875 -0.05
0.2 0.0875 -0.05
0.2125 0.0875 -0.05
0.225 0.0875 -0.05
0.2375 0.0875 -0.05
0.25 0.0875 -0.05
0.2625 0.0875 -0.05
0.275 0.0875 -0.05
0.2875 0.0875 -0.05
0.3 0.0875 -0.05
0.3125 0.0875 -0.05
0.325 0.0875 -0.05
0.3375 0.0875 -0.05
0.35 0.0875 -0.05
0.3625 0.0875 -0.05
0.375 0.0875 -0.05
0.3875 0.0875 -0.05
0.4 0.0875 -0.05
0.4125 0.0875 -0.05
0.425 0.0875 -0.05
0.4375 0.0875 -0.05
0.45 0.0875 -0.05
0.4625 0.0875 -0.05
0.475 0.0875 -0.05
0.4875 0.0875 -0.05
0.5 0.0875 -0.05
0.5125 0.0875 -0.05
0.525 0.0875 -0.05
0.5375 0.0875 -0.05
0.55 0.0875 -0.05
0.5625 0.0875 -0.05
0.575 0.0875 -0.05
0.5875 0.0875 -0.05
0.6 0.0875 -0.05
0.0 0.1 -0.05
0.0125 0.1 -0.05
0.025 0.1 -0.05
0.0375 0.1 -0.05
0.05 0.1 -0.05
0.0625 0.1 -0.05
0.075 0.1 -0.05
0.0875 0.1 -0.05
0.1 0.1 -0.05
0.1125 0.1 -0.05
0.125 0.1 -0.05
0.1375 0.1 -0.05
0.15 0.1 -0.05
0.1625 0.1 -0.05
0.175 0.1 -0.05
0.1875 0.1 -0.05
0.2 0.1 -0.05
0.2125 0.1 -0.05
0.225 0.1 -0.05
0.2375 0.1 -0.05
0.25 0.1 -0.05
0.2625 0.1 -0.05
0.275 0.1 -0.05
0.2875 0.1 -0.05
0.3 0.1 -0.05
0.3125 0.1 -0.05
0.325 0.1 -0.05
0.3375 0.1 -0.05
0.35 0.1 -0.05
0.3625 0.1 -0.05
0.375 0.1 -0.05
0.3875 0.1 -0.05
0.4 0.1 -0.05
0.4125 0.1 -0.05
0.425 0.1 -0.05
0.4375 0.1 -0.05
0.45 0.1 -0.05
0.4625 0.1 -0.05
0.475 0.1 -0.05
0.4875 0.1 -0.05
0.5 0.1 -0.05
0.5125 0.1 -0.05
0.525 0.1 -0.05
0.5375 0.1 -0.05
0.55 0.1 -0.05
0.5625 0.1 -0.05
0.575 0.1 -0.05
0.5875 0.1 -0.05
0.6 0.1 -0.05
0.0 0.1125 -0.05
0.0125 0.1125 -0.05
0.025 0.1125 -0.05
0.0375 0.1125 -0.05
0.05 0.1125 -0.05
0.0625 0.1125 -0.05
0.075 0.1125 -0.05
0.0875 0.1125 -0.05
0.1 0.1125 -0.05
0.1125 0.1125 -0.05
0.125 0.1125 -0.05
0.1375 0.1125 -0.05
0.15 0.1125 -0.05
0.1625 0.1125 -0.05
0.175 0.1125 -0.05
0.1875 0.1125 -0.05
0.2 0.1125 -0.05
0.2125 0.1125 -0.05
0.225 0.1125 -0.05
0.2375 0.1125 -0.05
0.25 0.1125 -0.05
0.2625 0.1125 -0.05
0.275 0.1125 -0.05
0.2875 0.1125 -0.05
0.3 0.1125 -0.05
0.3125 0.1125 -0.05
0.325 0.1125 -0.05
0.3375 0.1125 -0.05
0.35 0.1125 -0.05
0.3625 0.1125 -0.05
0.375 0.1125 -0.05
0.3875 0.1125 -0.05
0.4 0.1125 -0.05
0.4125 0.1125 -0.05
0.425 0.1125 -0.05
0.4375 0.1125 -0.05
0.45 0.1125 -0.05
0.4625 0.1125 -0.05
0.475 0.1125 -0.05
0.4875 0.1125 -0.05
0.5 0.1125 -0.05
0.5125 0.1125 -0.05
0.525 0.1125 -0.05
0.5375 0.1125 -0.05
0.55 0.1125 -0.05
0.5625 0.1125 -0.05
0.575 0.1125 -0.05
0.5875 0.1125 -0.05
0.6 0.1125 -0.05
0.0 0.125 -0.05
0.0125 0.125 -0.05
0.025 0.125 -0.05
0.0375 0.125 -0.05
0.05 0.125 -0.05
0.0625 0.125 -0.05
0.075 0.125 -0.05
0.0875 0.125 -0.05
0.1 0.125 -0.05
0.1125 0.125 -0.05
0.125 0.125 -0.05
0.1375 0.125 -0.05
0.15 0.125 -0.05
0.1625 0.125 -0.05
0.175 0.125 -0.05
0.1875 0.125 -0.05
0.2 0.125 -0.05
0.2125 0.125 -0.05
0.225 0.125 -0.05
0.2375 0.125 -0.05
0.25 0.125 -0.05
0.2625 0.125 -0.05
0.275 0.125 -0.05
0.2875 0.125 -0.05
0.3 0.125 -0.05
0.3125 0.125 -0.05
0.325 0.125 -0.05
0.3375 0.125 -0.05
0.35 0.125 -0.05
0.3625 0.125 -0.05
0.375 0.125 -0.05
0.3875 0.125 -0.05
0.4 0.125 -0.05
0.4125 0.125 -0.05
0.425 0.125 -0.05
0.4375 0.125 -0.05
0.45 0.125 -0.05
0.4625 0.125 -0.05
0.475 0.125 -0.05
0.4875 0.125 -0.05
0.5 0.125 -0.05
0.5125 0.125 -0.05
0.525 0.125 -0.05
0.5375 0.125 -0.05
0.55 0.125 -0.05
0.5625 0.125 -0.05
0.575 0.125 -0.05
0.5875 0.125 -0.05
0.6 0.125 -0.05
0.0 0.1375 -0.05
0.0125 0.1375 -0.05
0.025 0.1375 -0.05
0.0375 0.1375 -0.05
0.05 0.1375 -0.05
0.0625 0.1375 -0.05
0.075 0.1375 -0.05
0.0875 0.1375 -0.05
[...]
CELL_DATA 16128
SCALARS P float 1
LOOKUP_TABLE default
100000.00301594473
99999.99545938337
100000.00696836146
99999.98955965438
100000.01546041142
99999.97750898634
100000.03184557773
99999.95628633973
100000.05687730909
99999.93181130389
100000.06865370905
99999.9609219738
99999.93768215617
100000.3201479511
99999.09333815896
100002.16929675468
99995.17658077436
100010.37695574519
99977.83319843283
100047.83393332013
99893.89114018565
100243.67715443845
99417.3387120058
101456.77921045483
96337.80032649818
110127.08066051888
76243.82972012796
293607.54548061825
795667.3929500714
1.0905860355753896e6
1.0908649398581954e6
1.1038836792319887e6
1.116068225769369e6
1.126866544752082e6
1.1376503991924466e6
1.14758324291538e6
1.1570227458473945e6
1.1658494580810866e6
1.17399951503746e6
1.181648055733922e6
1.1883840671909582e6
1.1948684860823818e6
1.199849508386939e6
1.2054117220886261e6
1.207796324521228e6
1.2134319818675844e6
1.2109509594483047e6
1.2200317233469912e6
100000.00301001035
99999.99547760678
100000.00694225995
99999.98962594973
100000.01533779583
99999.97778242818
100000.03129845514
99999.95742331175
100000.05461447003
99999.93628319204
100000.06006077907
99999.97708525523
99999.90814510979
100000.37246082853
99999.0042995259
100002.31334082292
99994.96019885881
100010.66558833426
99977.53722341917
100047.91563536506
99894.62450838502
100240.93836270823
99424.34753559074
101443.74424271601
96353.9949454733
110141.80680888993
76075.41771202286
290298.52709761396
793393.1164856692
1.0939816428516586e6
1.0962908084354964e6
1.109653615963992e6
1.1222672780526925e6
1.133215426526598e6
1.1441163145004162e6
1.1541258070445803e6
1.1636364439194228e6
1.1725344701513518e6
1.1807586068227477e6
1.188482731843715e6
1.1952898961827303e6
1.2018386046898956e6
1.2068649405705833e6
1.2124603593926756e6
1.2148350749231484e6
1.2204741370378954e6
1.2178814610418763e6
1.227057390146252e6
100000.002962542
99999.99552468564
100000.00689747877
99999.98962690507
100000.01545998413
99999.97736135201
100000.03239213103
99999.95492032693
100000.06000670663
99999.92515522425
100000.0824157766
99999.93311260646
99999.99330727634
100000.20959018498
99999.3126382013
100001.73452069837
99996.0393197208
100008.66617357443
99981.22487103609
100041.16025527197
99906.93007676766
100218.91897428995
99462.63388520961
101381.99972794304
96432.67762975475
110112.26630844701
75667.65713073136
280135.8476985566
779743.4089343447
1.0877830334527248e6
1.0928009993345009e6
1.1048770079393606e6
1.1174298144116085e6
1.1280860753905617e6
1.1388064864511837e6
1.1486368759157811e6
1.157980869842878e6
1.1667151960984624e6
1.1747790408276834e6
1.1823455271982881e6
1.189005968496403e6
1.1954155873081144e6
1.2003280890266334e6
1.2058231903616316e6
1.208133708494455e6
1.213741796576623e6
1.211084129828986e6
1.2204291772255474e6
100000.0028928241
99999.99559589426
100000.00682705067
99999.98964117614
100000.01560927526
99999.97681252836
100000.03384228288
99999.95158696627
100000.06718481932
99999.91039256856
100000.11192457892
99999.8754333433
100000.10425725025
99999.99891463379
99999.70882108172
100000.99513231174
99997.41242613122
100006.12503699923
99985.926498604
100032.47050652564
99923.02975540556
100189.30832566386
99516.42623397404
101288.49884564965
96572.37591099807
109961.28668278844
75382.17455094289
265453.53499030037
761377.1982759966
1.0830391675752997e6
1.0933342552056657e6
1.1042485461222902e6
1.117277703745215e6
1.1279126316424431e6
1.1386864298931828e6
1.1485253255355654e6
1.1578760846784387e6
1.1666172143136947e6
1.1746944597167296e6
1.182281618513071e6
1.1889749863593092e6
1.1954230905718214e6
1.2003860298520487e6
1.2059318711134011e6
1.208285557158796e6
1.2139632288569128e6
1.2112365643210234e6
1.2208383300455501e6
100000.00279694702
99999.99570338687
100000.00670546516
99999.9897237497
100000.0156718694
99999.9763648292
100000.03519409598
99999.9483085859
100000.07444231777
99999.89523551271
100000.14249347942
99999.81535863531
100000.22020772345
99999.77812592164
100000.1252907223
100000.21427604719
99998.87299814716
100003.39065767083
99991.07395746192
100022.71001672272
99941.77264381105
100153.06029308573
99586.97601980915
101152.12052580733
96817.26590453596
109530.59254021417
75623.37035286946
246163.54179737758
735300.778339466
1.074186497962145e6
1.0918839755808648e6
1.100658257621018e6
1.1139097593219087e6
1.1242131348031345e6
1.1347948371685988e6
1.1444220461823284e6
1.1535704866627972e6
1.1621137149834118e6
1.1699985213750268e6
1.1773972506391169e6
1.1839138949561636e6
1.1901897031802582e6
1.1950014624609067e6
1.2004048458001951e6
1.2026351526671904e6
1.2082475111436762e6
1.205344919936711e6
1.2152167332890057e6
100000.00267228406
99999.99585700437
100000.0065110086
99999.98992304191
100000.01554605595
99999.97622531778
100000.036034757
99999.94589261767
100000.08022314419
99999.88264762578
100000.16854508514
99999.76329603643
100000.32193005856
99999.58250668313
100000.4978725757
99999.50790325615
100000.21350998829
100000.8304555382
99996.02812519221
100012.95381514876
99961.45615812045
100112.4630721113
99672.50409126845
100968.4914924657
97197.62201398567
108681.52472271804
76828.39635642638
223342.56943259088
702322.3338237774
1.0625648541422428e6
1.0911044750589596e6
1.0974344403883223e6
1.1111499998724412e6
1.121239656317042e6
1.1317315175086386e6
1.1412356875108562e6
1.1502599780683483e6
1.1586821335562624e6
1.1664536200582224e6
1.173749314603028e6
1.1801833858643502e6
1.186390673025601e6
1.1911628988515013e6
1.1965427043692754e6
1.1987585688768171e6
1.204420763819547e6
1.2013896165554328e6
1.2116448584512651e6
100000.00251887411
99999.99606011414
100000.00623381775
99999.9902635504
100000.01517627337
99999.97651119715
100000.03612328229
99999.94481869075
100000.08358529475
99999.87444897676
100000.18658704842
99999.72589095637
100000.39680710931
99999.43593801046
100000.78130096398
99998.9618359796
100001.27074775373
99998.75462394557
100000.20047456856
100004.30118643776
99980.08005523375
100070.8800480083
99768.20651515733
100740.97365366189
97725.58773833829
107326.04083953376
79377.73497298498
197875.80923378965
661837.775862479
1.0463410570477889e6
1.089741095146013e6
1.0930742054203055e6
1.1071439331054052e6
1.1168928323460496e6
1.1271565399914929e6
1.1364117416003845e6
1.1451798973174817e6
1.1533451748758135e6
1.1608582247600781e6
1.1678939629346484e6
1.1740745421417514e6
1.180026717156689e6
1.1845581833368673e6
1.1897063131996503e6
1.1916939845084837e6
1.1972256865569078e6
1.1938926293544977e6
1.204552911205069e6
100000.0023398501
99999.9963086321
100000.00587822818
99999.9907412704
100000.01456327936
99999.97723018471
100000.0354315827
99999.94515944234
100000.08436229435
99999.87100341331
100000.19584463416
99999.70479070529
100000.44133225377
99999.34597297151
100000.95916553988
99998.61214865732
100001.96491844511
99997.34049454884
100003.19735971694
99997.6196654902
99995.76028213723
100032.26025119681
99866.23470285273
100483.52580731214
98384.10615091232
105476.46320346091
83472.083841186
171020.41114604237
613984.4547388252
1.0247043635292738e6
1.0881385613206336e6
1.0883220678438686e6
1.102717621580654e6
1.1121680014539901e6
1.1221941086493875e6
1.1312023604488946e6
1.1397073897451402e6
1.1476108820913818e6
1.1548647674740942e6
1.1616502176289405e6
1.1676041986264477e6
1.1733519997812347e6
1.1777237226232938e6
1.1827531249351536e6
1.1846474581573675e6
1.1902028598679944e6
1.1866637955082457e6
1.1978937473810096e6
100000.00214036553
99999.99659341993
100000.0054588006
99999.99133103763
100000.0137509705
99999.97830322133
100000.03410459567
99999.94664486559
100000.08305949603
99999.87136329614
100000.19808086332
99999.69675346414
100000.46134348487
99999.30240569107
100001.04850567755
99998.4325292437
100002.3308600999
99996.55979995822
100004.98030472803
99993.20986668226
100007.38827816921
100000.0084010335
99957.26780895588
100220.6779552652
99119.78291377914
103276.32991907789
89001.50580839202
144247.05944762635
558972.0770761992
996140.2531397782
1.0857538560114668e6
1.0830016934182486e6
1.0974729360036505e6
1.106605835100881e6
1.116287736795532e6
1.1249591832469527e6
1.1330928039734773e6
1.1406130728670787e6
1.1474645870794295e6
1.153827975703145e6
1.1593441987162551e6
1.1646283696500629e6
1.1685200358664629e6
1.1730584503773567e6
1.1744274814056319e6
1.179613537472235e6
1.1754340829378467e6
1.1872193700476675e6
100000.00192578747
99999.99690483237
100000.00499231128
99999.99200262857
100000.01279627674
99999.97962189511
100000.0323539205
99999.94885920276
100000.08049852418
99999.8739049552
100000.19649213679
99999.69552354305
100000.4689688237
99999.28199262235
100001.09315594021
99998.3420916476
100002.51316018905
99996.16728871774
100005.92893328573
99990.60182942022
100015.1703498373
99975.66667488588
100033.38461547701
99981.26731353565
99847.31415700498
100998.89646747915
95422.91230096936
119348.77427803545
497547.33200375905
959148.4754301695
1.0820572575214482e6
1.077409200118069e6
1.0915607563119975e6
1.1004255108817639e6
1.109689486489097e6
1.117976413291983e6
1.125680172843136e6
1.132761113895067e6
1.1391612061223893e6
1.1450714400234786e6
1.1501535719434868e6
1.1550304897689412e6
1.158580227255775e6
1.1628475474480363e6
1.164018621595287e6
1.1692043394134718e6
1.1647256635882093e6
1.177369679177932e6
100000.00169991839
99999.99723713394
100000.00448923404
99999.99273805197
100000.01173439246
99999.98111681014
100000.03032283286
99999.9515026319
100000.0773118657
99999.87729310928
100000.19388579475
99999.69523943221
100000.47634628117
99999.2598667208
100001.14346632702
99998.24046397978
100002.70792239123
99995.79111752337
100006.71656153903
99988.67804298362
100020.65560779652
99958.24729025621
100090.612940323
99791.1968035946
100466.27717515884
98994.00224131193
101735.10877671024
98400.17810725403
431064.8975040235
912055.5185460395
1.0759581164720661e6
1.0716989905873472e6
1.0848933262865876e6
1.0935396269034243e6
1.1022749191411093e6
1.1100840923848469e6
1.1172374852877962e6
1.1237304635984765e6
1.1294867696160122e6
1.1346885097225201e6
1.1389854482908656e6
1.1429763972006484e6
1.1455175275233383e6
1.1486613608698577e6
1.1485145490243842e6
1.1525793649577377e6
1.1464505313635636e6
1.159719559894068e6
100000.00146441127
99999.99759036177
100000.00394940973
99999.99354140434
100000.01055685243
99999.98280520098
100000.02798484945
99999.95460496249
100000.07349882062
99999.88139399761
100000.19081728223
99999.69418955715
100000.48809532392
99999.22443090648
100001.22708695955
99998.06421771721
100003.05580586314
99995.13049081303
100007.96058152449
99986.25167090443
100025.89787403466
99945.0474265881
100129.3919489532
99666.44810543634
100888.41696193822
97592.2254855161
106644.62862156142
83530.97913935906
361664.6729279631
853338.9522718987
1.0658258546894558e6
1.0660826169004806e6
1.0774938472627464e6
1.0859981761226337e6
1.0941123083801074e6
1.101368491879437e6
1.1078853765675856e6
1.1137021023407325e6
1.1187358099236458e6
1.1231788311936613e6
1.1267069633373609e6
1.1299416257033953e6
1.1318017703258574e6
1.1343727243334765e6
1.1338515942098512e6
1.1377952024619053e6
1.131339614920609e6
1.1457600808399238e6
100000.00121979203
99999.997968084
100000.00336485103
99999.99443429084
100000.00921628311
99999.98478753964
100000.02513623801
99999.9585655913
100000.06829556952
99999.88762943727
100000.18470538857
99999.69692520742
100000.49647748387
99999.18822751207
100001.32517672384
99997.83806516157
100003.53380419423
99994.17871989572
100009.77214436192
99982.93164869334
100031.8789673515
99934.14415086538
100151.69861213221
99611.95526321023
101061.96979554695
97006.78197447503
108990.81378686611
76327.5883671264
292238.6437345603
781994.6119143144
1.049373094387924e6
1.0606521682994133e6
1.0693733818719157e6
1.0777870169420908e6
1.085185088896832e6
1.091780939754395e6
1.097522538413571e6
1.1024752806516546e6
1.1065230685117363e6
1.1098249679043656e6
1.1120017752434197e6
1.1136000100336827e6
1.113402249667573e6
1.1134441275813677e6
1.1095804226883957e6
1.1101084063617906e6
1.0985841753917884e6
1.1129560638554334e6
100000.00096793663
99999.99837152354
100000.00272973983
99999.99543659852
100000.00766134704
99999.98718437435
100000.02150930806
99999.96395609196
100000.06051441826
99999.89841592424
100000.17071992521
99999.71295260004
100000.48304821609
99999.18649169938
100001.3714616224
99997.68412679597
100003.92224166408
99993.31713949647
100011.52130327882
99979.67431682932
100037.3392444718
99926.65089380763
100157.66391241596
99623.49044593422
100990.14822739761
97247.87505560074
108390.7774925105
77055.40886890488
226185.35033609348
697984.4674834564
1.0237589569661289e6
1.0552990222119864e6
1.060641163406277e6
1.0689376029476644e6
1.0755549822612396e6
1.0813964821780168e6
1.0862634368793294e6
1.090242302038844e6
1.0932036424109724e6
1.09529946527198e6
1.0961742511953888e6
1.0963830706243166e6
1.0948483578110794e6
1.0936052157557295e6
1.088960160154183e6
1.0886178487130827e6
1.077138901162966e6
1.0907450995055991e6
100000.00071478484
99999.9987925962
100000.00205327754
99999.99654010784
100000.00588816656
99999.99003487734
100000.01696893484
99999.97113906535
100000.04927301065
99999.91577378033
100000.1444058044
99999.75183016168
100000.42773897138
99999.26065479839
100001.28187080428
99997.77042354988
100003.89189435306
99993.17655372976
100012.0393180073
99978.53805571285
100038.95590690146
99926.98084978922
100144.33951811251
99691.02858446469
100732.74170416537
98096.01842389772
105595.40082358291
84160.41763686559
167323.8610476383
602572.128539785
985640.1662298824
1.0494305156047062e6
1.0514956365629614e6
1.0594710778606804e6
1.0652616671231817e6
1.0702313297004239e6
1.0740834048952314e6
1.0768869958146845e6
1.0784603121108282e6
1.0788768892621307e6
1.077645615323663e6
1.0751134222154298e6
1.0697955225210995e6
1.0632981886914605e6
1.0505616931154837e6
1.0399928206160669e6
1.0104220350504967e6
1.0172895255870307e6
100000.00047178357
99999.9992098161
100000.0013685981
99999.99768911903
100000.00398245676
99999.99320862946
100000.01169844269
99999.97988559768
100000.03478234503
99999.93972636382
100000.10492296584
99999.8166573963
100000.32182250984
99999.43258510626
100001.00494122776
99998.21247200725
100003.1919083685
99994.2820630854
100010.26637465588
99981.5449390814
100033.18934836186
99940.24954336845
100108.08249521299
99800.8989120682
100383.32190361872
99190.88214389907
101999.03604437587
94441.4684366542
120073.67081683682
498779.98833452625
931264.4326041391
1.0415110918392544e6
1.0422102949565047e6
1.049424704312346e6
1.0543859840852744e6
1.0583877838212156e6
1.0611315241685791e6
1.0626483561909557e6
1.0627237725723544e6
1.0613749752186332e6
1.0580865660302574e6
1.0531299406986674e6
1.0451759138451953e6
1.0356434220383267e6
1.020800346939834e6
1.0059671744794946e6
977785.3029946375
944332.5516127892
100000.00025476134
99999.99959022757
100000.00073119713
99999.99878117567
100000.00212417099
99999.99638569214
100000.00625859639
99999.98921864248
100000.01872613144
99999.96740871346
100000.05706559123
99999.89959440535
100000.17772411923
99999.68355949006
100000.56678025631
99998.97939021549
100001.84558898993
99996.65619149736
100006.04740589074
99989.15327227504
100019.0846912086
99967.69320691566
100050.4040972694
99934.70892876267
100036.12528034975
100168.5308474935
99011.99576626444
103648.82897797905
88954.61438652969
391962.85178958374
857171.5346788454
1.0285703583270429e6
1.0330183390447542e6
1.0388325589430302e6
1.0429977947561702e6
1.0459490335550928e6
1.0474886589437596e6
1.0475784396643868e6
1.0459374384396273e6
1.0424630348175525e6
1.0364519521871854e6
1.0277767196382149e6
1.0144308103972623e6
996207.4019447597
966264.2791212606
922841.4923775855
836041.9328955748
682854.5048346472
100000.00008008798
99999.99989802304
100000.00020496863
99999.99969318497
100000.0005425899
99999.99913564422
100000.00145367782
99999.99763802573
100000.00389963
99999.99362421712
100000.01048182318
99999.98276789965
100000.02847024355
99999.95272710541
100000.07897260599
99999.86752640185
100000.22162731887
99999.6367511574
100000.5586161573
99999.29186885583
100000.2846960955
100002.78140205584
99983.99850871354
100064.09750320854
99769.66934421922
100772.04062910279
97489.8019069286
108200.56843197435
76267.34460479893
289446.14881169604
761812.8954773588
1.0062412597953622e6
1.0240049052991868e6
1.0277934835684011e6
1.0311995859453982e6
1.0330567459643419e6
1.0333416921931711e6
1.0319406057422297e6
1.0285157796005624e6
1.0228556893940823e6
1.0141155727678743e6
1.0018998011556932e6
983894.8924191885
959217.5235918902
920754.1536928202
865320.4172389804
768523.8139276445
611084.3655124395
99999.99995944505
100000.0001067235
99999.99984047769
100000.00032417728
99999.99943529352
100000.00107225013
99999.99803666266
100000.00367923014
99999.99314861796
100000.01284632526
99999.97590113495
100000.0453429881
99999.91452262072
100000.16150954191
99999.69408720428
100000.58104548861
99998.89249723543
100002.12095586298
99995.91020749963
100007.96891787702
99984.21476993742
100032.05652055815
99932.3388851094
100150.22856477648
99642.88480451022
100910.03496177447
97527.16350434677
107325.7208258053
79492.55968271708
199140.77001120098
646688.5518326835
969098.7567589873
1.0148289656990201e6
1.0165433815519358e6
1.0191221686255746e6
1.0198706611816431e6
1.0188822776510135e6
1.0159809417842738e6
1.0107812066647203e6
1.0029876186021186e6
991657.4941195127
976248.0992886937
954330.8239090835
924904.8016074833
881221.0774145612
821311.8033316807
725450.3300652598
591175.2510918328
99999.99989542506
100000.00020940696
99999.99965534992
100000.00063509787
99999.99888888065
100000.00201196743
99999.99639324291
100000.00654442699
99999.98811274725
100000.02172760855
99999.96013630737
100000.07349492551
99999.86390606016
100000.2531694302
99999.52692943891
100000.88795611059
99998.32601556713
100003.16945269039
99993.97433793137
100011.50285071535
99977.94960910715
100042.46892207602
99917.65883489535
100161.21473875524
99678.37963144774
100661.75253517619
98567.46951351703
103419.09148958338
91482.65630107264
129281.97363241184
516953.7161700411
910519.03298611
1.0037176997800694e6
1.0053687224176512e6
1.0068971563102023e6
1.0065540839370976e6
1.0043100982837351e6
999961.4359658414
993084.0340208006
983337.9329801054
969737.0286135351
951715.9630814822
926877.0732216656
894476.4660380714
848316.0741544768
788390.049111046
698240.7030638879
586173.8163181356
99999.99988025811
100000.00022166813
99999.99962704198
100000.00066468262
99999.99884365613
100000.00205021088
99999.99637767315
100000.00645160694
99999.98848338699
100000.02066407543
99999.96277874
100000.0673488854
99999.87760072429
100000.22344659301
99999.59023571419
100000.75473633026
99998.60405772313
100002.5911601704
99995.17787769437
100008.9807898906
99983.31295213675
100030.77099801908
99944.19401153321
100097.829405311
99839.63710788063
100223.65723721533
99821.7994313757
99575.13001455748
103163.08536799028
87628.59974475004
382860.5222380582
824191.7142044328
986237.0951755906
994308.0457731565
994591.6579829883
993235.8467111209
989806.0331425883
984113.7733009707
975717.9489458158
964269.4351224083
948790.0787040936
928772.5050332159
901960.0400611013
867976.0567841666
821346.9092607714
763507.7521741634
681181.5936398914
586177.7717886014
99999.99989831111
100000.00017557552
99999.99970205841
100000.00051208945
99999.99912296303
100000.00150998794
99999.99740032395
100000.0044877085
99999.99224647507
100000.01341540177
99999.97677071764
100000.0402469166
99999.93026005532
100000.12080185338
99999.79098717989
100000.36087559456
99999.37931701817
100001.06073988568
99998.20766477354
100002.96844206857
99995.27054432289
100006.94370092484
99991.78857230544
100002.39749204929
100032.47789376594
99827.31123040212
100662.71189539676
97684.57894818866
107879.90274723251
75886.6672923878
258552.86636371803
708090.7396801248
955658.4336284843
983121.3536796396
982332.4204927951
980041.301980267