# vtk DataFile Version 2.0
JuliaCFD
ASCII
DATASET UNSTRUCTURED_GRID

POINTS 32898 float
0.0 0.0 -0.05
0.0125 0.0 -0.05
0.025 0.0 -0.05
0.0375 0.0 -0.05
0.05 0.0 -0.05
0.0625 0.0 -0.05
0.075 0.0 -0.05
0.0875 0.0 -0.05
0.1 0.0 -0.05
0.1125 0.0 -0.05
0.125 0.0 -0.05
0.1375 0.0 -0.05
0.15 0.0 -0.05
0.1625 0.0 -0.05
0.175 0.0 -0.05
0.1875 0.0 -0.05
0.2 0.0 -0.05
0.2125 0.0 -0.05
0.225 0.0 -0.05
0.2375 0.0 -0.05
0.25 0.0 -0.05
0.2625 0.0 -0.05
0.275 0.0 -0.05
0.2875 0.0 -0.05
0.3 0.0 -0.05
0.3125 0.0 -0.05
0.325 0.0 -0.05
0.3375 0.0 -0.05
0.35 0.0 -0.05
0.3625 0.0 -0.05
0.375 0.0 -0.05
0.3875 0.0 -0.05
0.4 0.0 -0.05
0.4125 0.0 -0.05
0.425 0.0 -0.05
0.4375 0.0 -0.05
0.45 0.0 -0.05
0.4625 0.0 -0.05
0.475 0.0 -0.05
0.4875 0.0 -0.05
0.5 0.0 -0.05
0.5125 0.0 -0.05
0.525 0.0 -0.05
0.5375 0.0 -0.05
0.55 0.0 -0.05
0.5625 0.0 -0.05
0.575 0.0 -0.05
0.5875 0.0 -0.05
0.6 0.0 -0.05
0.0 0.0125 -0.05
0.0125 0.0125 -0.05
0.025 0.0125 -0.05
0.0375 0.0125 -0.05
0.05 0.0125 -0.05
0.0625 0.0125 -0.05
0.075 0.0125 -0.05
0.0875 0.0125 -0.05
0.1 0.0125 -0.05
0.1125 0.0125 -0.05
0.125 0.0125 -0.05
0.1375 0.0125 -0.05
0.15 0.0125 -0.05
0.1625 0.0125 -0.05
0.175 0.0125 -0.05
0.1875 0.0125 -0.05
0.2 0.0125 -0.05
0.2125 0.0125 -0.05
0.225 0.0125 -0.05
0.2375 0.0125 -0.05
0.25 0.0125 -0.05
0.2625 0.0125 -0.05
0.275 0.0125 -0.05
0.2875 0.0125 -0.05
0.3 0.0125 -0.05
0.3125 0.0125 -0.05
0.325 0.0125 -0.05
0.3375 0.0125 -0.05
0.35 0.0125 -0.05
0.3625 0.0125 -0.05
0.375 0.0125 -0.05
0.3875 0.0125 -0.05
0.4 0.0125 -0.05
0.4125 0.0125 -0.05
0.425 0.0125 -0.05
0.4375 0.0125 -0.05
0.45 0.0125 -0.05
0.4625 0.0125 -0.05
0.475 0.0125 -0.05
0.4875 0.0125 -0.05
0.5 0.0125 -0.05
0.5125 0.0125 -0.05
0.525 0.0125 -0.05
0.5375 0.0125 -0.05
0.55 0.0125 -0.05
0.5625 0.0125 -0.05
0.575 0.0125 -0.05
0.5875 0.0125 -0.05
0.6 0.0125 -0.05
0.0 0.025 -0.05
0.0125 0.025 -0.05
0.025 0.025 -0.05
0.0375 0.025 -0.05
0.05 0.025 -0.05
0.0625 0.025 -0.05
0.075 0.025 -0.05
0.0875 0.025 -0.05
0.1 0.025 -0.05
0.1125 0.025 -0.05
0.125 0.025 -0.05
0.1375 0.025 -0.05
0.15 0.025 -0.05
0.1625 0.025 -0.05
0.175 0.025 -0.05
0.1875 0.025 -0.05
0.2 0.025 -0.05
0.2125 0.025 -0.05
0.225 0.025 -0.05
0.2375 0.025 -0.05
0.25 0.025 -0.05
0.2625 0.025 -0.05
0.275 0.025 -0.05
0.2875 0.025 -0.05
0.3 0.025 -0.05
0.3125 0.025 -0.05
0.325 0.025 -0.05
0.3375 0.025 -0.05
0.35 0.025 -0.05
0.3625 0.025 -0.05
0.375 0.025 -0.05
0.3875 0.025 -0.05
0.4 0.025 -0.05
0.4125 0.025 -0.05
0.425 0.025 -0.05
0.4375 0.025 -0.05
0.45 0.025 -0.05
0.4625 0.025 -0.05
0.475 0.025 -0.05
0.4875 0.025 -0.05
0.5 0.025 -0.05
0.5125 0.025 -0.05
0.525 0.025 -0.05
0.5375 0.025 -0.05
0.55 0.025 -0.05
0.5625 0.025 -0.05
0.575 0.025 -0.05
0.5875 0.025 -0.05
0.6 0.025 -0.05
0.0 0.0375 -0.05
0.0125 0.0375 -0.05
0.025 0.0375 -0.05
0.0375 0.0375 -0.05
0.05 0.0375 -0.05
0.0625 0.0375 -0.05
0.075 0.0375 -0.05
0.0875 0.0375 -0.05
0.1 0.0375 -0.05
0.1125 0.0375 -0.05
0.125 0.0375 -0.05
0.1375 0.0375 -0.05
0.15 0.0375 -0.05
0.1625 0.0375 -0.05
0.175 0.0375 -0.05
0.1875 0.0375 -0.05
0.2 0.0375 -0.05
0.2125 0.0375 -0.05
0.225 0.0375 -0.05
0.2375 0.0375 -0.05
0.25 0.0375 -0.05
0.2625 0.0375 -0.05
0.275 0.0375 -0.05
0.2875 0.0375 -0.05
0.3 0.0375 -0.05
0.3125 0.0375 -0.05
0.325 0.0375 -0.05
0.3375 0.0375 -0.05
0.35 0.0375 -0.05
0.3625 0.0375 -0.05
0.375 0.0375 -0.05
0.3875 0.0375 -0.05
0.4 0.0375 -0.05
0.4125 0.0375 -0.05
0.425 0.0375 -0.05
0.4375 0.0375 -0.05
0.45 0.0375 -0.05
0.4625 0.0375 -0.05
0.475 0.0375 -0.05
0.4875 0.0375 -0.05
0.5 0.0375 -0.05
0.5125 0.0375 -0.05
0.525 0.0375 -0.05
0.5375 0.0375 -0.05
0.55 0.0375 -0.05
0.5625 0.0375 -0.05
0.575 0.0375 -0.05
0.5875 0.0375 -0.05
0.6 0.0375 -0.05
0.0 0.05 -0.05
0.0125 0.05 -0.05
0.025 0.05 -0.05
0.0375 0.05 -0.05
0.05 0.05 -0.05
0.0625 0.05 -0.05
0.075 0.05 -0.05
0.0875 0.05 -0.05
0.1 0.05 -0.05
0.1125 0.05 -0.05
0.125 0.05 -0.05
0.1375 0.05 -0.05
0.15 0.05 -0.05
0.1625 0.05 -0.05
0.175 0.05 -0.05
0.1875 0.05 -0.05
0.2 0.05 -0.05
0.2125 0.05 -0.05
0.225 0.05 -0.05
0.2375 0.05 -0.05
0.25 0.05 -0.05
0.2625 0.05 -0.05
0.275 0.05 -0.05
0.2875 0.05 -0.05
0.3 0.05 -0.05
0.3125 0.05 -0.05
0.325 0.05 -0.05
0.3375 0.05 -0.05
0.35 0.05 -0.05
0.3625 0.05 -0.05
0.375 0.05 -0.05
0.3875 0.05 -0.05
0.4 0.05 -0.05
0.4125 0.05 -0.05
0.425 0.05 -0.05
0.4375 0.05 -0.05
0.45 0.05 -0.05
0.4625 0.05 -0.05
0.475 0.05 -0.05
0.4875 0.05 -0.05
0.5 0.05 -0.05
0.5125 0.05 -0.05
0.525 0.05 -0.05
0.5375 0.05 -0.05
0.55 0.05 -0.05
0.5625 0.05 -0.05
0.575 0.05 -0.05
0.5875 0.05 -0.05
0.6 0.05 -0.05
0.0 0.0625 -0.05
0.0125 0.0625 -0.05
0.025 0.0625 -0.05
0.0375 0.0625 -0.05
0.05 0.0625 -0.05
0.0625 0.0625 -0.05
0.075 0.0625 -0.05
0.0875 0.0625 -0.05
0.1 0.0625 -0.05
0.1125 0.0625 -0.05
0.125 0.0625 -0.05
0.1375 0.0625 -0.05
0.15 0.0625 -0.05
0.1625 0.0625 -0.05
0.175 0.0625 -0.05
0.1875 0.0625 -0.05
0.2 0.0625 -0.05
0.2125 0.0625 -0.05
0.225 0.0625 -0.05
0.2375 0.0625 -0.05
0.25 0.0625 -0.05
0.2625 0.0625 -0.05
0.275 0.0625 -0.05
0.2875 0.0625 -0.05
0.3 0.0625 -0.05
0.3125 0.0625 -0.05
0.325 0.0625 -0.05
0.3375 0.0625 -0.05
0.35 0.0625 -0.05
0.3625 0.0625 -0.05
0.375 0.0625 -0.05
0.3875 0.0625 -0.05
0.4 0.0625 -0.05
0.4125 0.0625 -0.05
0.425 0.0625 -0.05
0.4375 0.0625 -0.05
0.45 0.0625 -0.05
0.4625 0.0625 -0.05
0.475 0.0625 -0.05
0.4875 0.0625 -0.05
0.5 0.0625 -0.05
0.5125 0.0625 -0.05
0.525 0.0625 -0.05
0.5375 0.0625 -0.05
0.55 0.0625 -0.05
0.5625 0.0625 -0.05
0.575 0.0625 -0.05
0.5875 0.0625 -0.05
0.6 0.0625 -0.05
0.0 0.075 -0.05
0.0125 0.075 -0.05
0.025 0.075 -0.05
0.0375 0.075 -0.05
0.05 0.075 -0.05
0.0625 0.075 -0.05
0.075 0.075 -0.05
0.0875 0.075 -0.05
0.1 0.075 -0.05
0.1125 0.075 -0.05
0.125 0.075 -0.05
0.1375 0.075 -0.05
0.15 0.075 -0.05
0.1625 0.075 -0.05
0.175 0.075 -0.05
0.1875 0.075 -0.05
0.2 0.075 -0.05
0.2125 0.075 -0.05
0.225 0.075 -0.05
0.2375 0.075 -0.05
0.25 0.075 -0.05
0.2625 0.075 -0.05
0.275 0.075 -0.05
0.2875 0.075 -0.05
0.3 0.075 -0.05
0.3125 0.075 -0.05
0.325 0.075 -0.05
0.3375 0.075 -0.05
0.35 0.075 -0.05
0.3625 0.075 -0.05
0.375 0.075 -0.05
0.3875 0.075 -0.05
0.4 0.075 -0.05
0.4125 0.075 -0.05
0.425 0.075 -0.05
0.4375 0.075 -0.05
0.45 0.075 -0.05
0.4625 0.075 -0.05
0.475 0.075 -0.05
0.4875 0.075 -0.05
0.5 0.075 -0.05
0.5125 0.075 -0.05
0.525 0.075 -0.05
0.5375 0.075 -0.05
0.55 0.075 -0.05
0.5625 0.075 -0.05
0.575 0.075 -0.05
0.5875 0.075 -0.05
0.6 0.075 -0.05
0.0 0.0875 -0.05
0.0125 0.0875 -0.05
0.025 0.0875 -0.05
0.0375 0.0875 -0.05
0.05 0.0875 -0.05
0.0625 0.0875 -0.05
0.075 0.0875 -0.05
0.0875 0.0875 -0.05
0.1 0.0875 -0.05
0.1125 0.0875 -0.05
0.125 0.0875 -0.05
0.1375 0.0875 -0.05
0.15 0.0875 -0.05
0.1625 0.0875 -0.05
0.175 0.0875 -0.05
0.1875 0.0875 -0.05
0.2 0.0875 -0.05
0.2125 0.0875 -0.05
0.225 0.0875 -0.05
0.2375 0.0875 -0.05
0.25 0.0875 -0.05
0.2625 0.0875 -0.05
0.275 0.0875 -0.05
0.2875 0.0875 -0.05
0.3 0.0875 -0.05
0.3125 0.0875 -0.05
0.325 0.0875 -0.05
0.3375 0.0875 -0.05
0.35 0.0875 -0.05
0.3625 0.0875 -0.05
0.375 0.0875 -0.05
0.3875 0.0875 -0.05
0.4 0.0875 -0.05
0.4125 0.0875 -0.05
0.425 0.0875 -0.05
0.4375 0.0875 -0.05
0.45 0.0875 -0.05
0.4625 0.0875 -0.05
0.475 0.0875 -0.05
0.4875 0.0875 -0.05
0.5 0.0875 -0.05
0.5125 0.0875 -0.05
0.525 0.0875 -0.05
0.5375 0.0875 -0.05
0.55 0.0875 -0.05
0.5625 0.0875 -0.05
0.575 0.0875 -0.05
0.5875 0.0875 -0.05
0.6 0.0875 -0.05
0.0 0.1 -0.05
0.0125 0.1 -0.05
0.025 0.1 -0.05
0.0375 0.1 -0.05
0.05 0.1 -0.05
0.0625 0.1 -0.05
0.075 0.1 -0.05
0.0875 0.1 -0.05
0.1 0.1 -0.05
0.1125 0.1 -0.05
0.125 0.1 -0.05
0.1375 0.1 -0.05
0.15 0.1 -0.05
0.1625 0.1 -0.05
0.175 0.1 -0.05
0.1875 0.1 -0.05
0.2 0.1 -0.05
0.2125 0.1 -0.05
0.225 0.1 -0.05
0.2375 0.1 -0.05
0.25 0.1 -0.05
0.2625 0.1 -0.05
0.275 0.1 -0.05
0.2875 0.1 -0.05
0.3 0.1 -0.05
0.3125 0.1 -0.05
0.325 0.1 -0.05
0.3375 0.1 -0.05
0.35 0.1 -0.05
0.3625 0.1 -0.05
0.375 0.1 -0.05
0.3875 0.1 -0.05
0.4 0.1 -0.05
0.4125 0.1 -0.05
0.425 0.1 -0.05
0.4375 0.1 -0.05
0.45 0.1 -0.05
0.4625 0.1 -0.05
0.475 0.1 -0.05
0.4875 0.1 -0.05
0.5 0.1 -0.05
0.5125 0.1 -0.05
0.525 0.1 -0.05
0.5375 0.1 -0.05
0.55 0.1 -0.05
0.5625 0.1 -0.05
0.575 0.1 -0.05
0.5875 0.1 -0.05
0.6 0.1 -0.05
0.0 0.1125 -0.05
0.0125 0.1125 -0.05
0.025 0.1125 -0.05
0.0375 0.1125 -0.05
0.05 0.1125 -0.05
0.0625 0.1125 -0.05
0.075 0.1125 -0.05
0.0875 0.1125 -0.05
0.1 0.1125 -0.05
0.1125 0.1125 -0.05
0.125 0.1125 -0.05
0.1375 0.1125 -0.05
0.15 0.1125 -0.05
0.1625 0.1125 -0.05
0.175 0.1125 -0.05
0.1875 0.1125 -0.05
0.2 0.1125 -0.05
0.2125 0.1125 -0.05
0.225 0.1125 -0.05
0.2375 0.1125 -0.05
0.25 0.1125 -0.05
0.2625 0.1125 -0.05
0.275 0.1125 -0.05
0.2875 0.1125 -0.05
0.3 0.1125 -0.05
0.3125 0.1125 -0.05
0.325 0.1125 -0.05
0.3375 0.1125 -0.05
0.35 0.1125 -0.05
0.3625 0.1125 -0.05
0.375 0.1125 -0.05
0.3875 0.1125 -0.05
0.4 0.1125 -0.05
0.4125 0.1125 -0.05
0.425 0.1125 -0.05
0.4375 0.1125 -0.05
0.45 0.1125 -0.05
0.4625 0.1125 -0.05
0.475 0.1125 -0.05
0.4875 0.1125 -0.05
0.5 0.1125 -0.05
0.5125 0.1125 -0.05
0.525 0.1125 -0.05
0.5375 0.1125 -0.05
0.55 0.1125 -0.05
0.5625 0.1125 -0.05
0.575 0.1125 -0.05
0.5875 0.1125 -0.05
0.6 0.1125 -0.05
0.0 0.125 -0.05
0.0125 0.125 -0.05
0.025 0.125 -0.05
0.0375 0.125 -0.05
0.05 0.125 -0.05
0.0625 0.125 -0.05
0.075 0.125 -0.05
0.0875 0.125 -0.05
0.1 0.125 -0.05
0.1125 0.125 -0.05
0.125 0.125 -0.05
0.1375 0.125 -0.05
0.15 0.125 -0.05
0.1625 0.125 -0.05
0.175 0.125 -0.05
0.1875 0.125 -0.05
0.2 0.125 -0.05
0.2125 0.125 -0.05
0.225 0.125 -0.05
0.2375 0.125 -0.05
0.25 0.125 -0.05
0.2625 0.125 -0.05
0.275 0.125 -0.05
0.2875 0.125 -0.05
0.3 0.125 -0.05
0.3125 0.125 -0.05
0.325 0.125 -0.05
0.3375 0.125 -0.05
0.35 0.125 -0.05
0.3625 0.125 -0.05
0.375 0.125 -0.05
0.3875 0.125 -0.05
0.4 0.125 -0.05
0.4125 0.125 -0.05
0.425 0.125 -0.05
0.4375 0.125 -0.05
0.45 0.125 -0.05
0.4625 0.125 -0.05
0.475 0.125 -0.05
0.4875 0.125 -0.05
0.5 0.125 -0.05
0.5125 0.125 -0.05
0.525 0.125 -0.05
0.5375 0.125 -0.05
0.55 0.125 -0.05
0.5625 0.125 -0.05
0.575 0.125 -0.05
0.5875 0.125 -0.05
0.6 0.125 -0.05
0.0 0.1375 -0.05
0.0125 0.1375 -0.05
0.025 0.1375 -0.05
0.0375 0.1375 -0.05
0.05 0.1375 -0.05
0.0625 0.1375 -0.05
0.075 0.1375 -0.05
0.0875 0.1375 -0.05
[...]
CELL_DATA 16128
SCALARS P float 1
LOOKUP_TABLE default
100000.0064301911
99999.99008614928
100000.01573304772
99999.9755216027
100000.03824431899
99999.94070811602
100000.09153661516
99999.85956310417
100000.21362705194
99999.67823311272
100000.47730202066
99999.30695198443
100000.97045142105
99998.72810463211
100001.43372241037
99999.0659922135
99998.2341178752
100011.04217779695
99960.73140403852
100121.53013152868
99644.086770089
101033.772697706
97100.01686872696
108723.12975715249
77266.23357940608
209409.06545502253
669167.1773352546
1.0300516552625912e6
1.0659420374350355e6
1.0720676122491548e6
1.0855533625388425e6
1.0963741863232232e6
1.1073960560716942e6
1.1177164072597628e6
1.1276068047777426e6
1.1369875333930838e6
1.1458418627878558e6
1.1542171930969532e6
1.1619663299675772e6
1.1692853120564031e6
1.17574547463019e6
1.181991721668708e6
1.1867819711032254e6
1.1921585782909733e6
1.1944153034837742e6
1.1999028369196523e6
1.1973633739360124e6
1.2063843444251237e6
100000.00635467004
99999.99022394455
100000.01547336129
99999.97601456077
100000.03732684648
99999.94244302524
100000.08832301707
99999.86554212766
100000.2026864951
99999.69812422644
100000.44176065578
99999.36942802514
100000.86332503372
99998.90611466453
100001.15145971044
99999.48236794188
99997.69852048313
100011.52865658261
99960.91803588759
100118.94513938768
99653.58083409315
101006.6787753836
97167.48490722
108551.51254235362
77568.718533956
206877.51090516886
666346.8705066972
1.0321627999373194e6
1.070818810554156e6
1.077284808131282e6
1.0912149338965714e6
1.102206663565972e6
1.1133530815990504e6
1.1237645365061834e6
1.133741903082945e6
1.143212420795992e6
1.152161854677087e6
1.1606368061750894e6
1.1684871857691633e6
1.1759064073490403e6
1.1824603263914634e6
1.1887920302398517e6
1.1936484932409718e6
1.1990786464647339e6
1.2013460344541383e6
1.2068540722904126e6
1.2042193442702938e6
1.2133385201072802e6
100000.00636187043
99999.99013014426
100000.01566989461
99999.9755236074
100000.03835878635
99999.94028086968
100000.09267566852
99999.85691861856
100000.21951501681
99999.66566169444
100000.50386224635
99999.25149298496
100001.08614374632
99998.4868552093
100001.9386372019
99998.00510041679
100000.4782247338
100006.26881226728
99970.98759889853
100099.33677121623
99692.64402262561
100925.36697685643
97336.719276979
108137.41562432601
78339.22675509528
199519.4685589183
653623.8575907364
1.0250082609434185e6
1.0677221687823706e6
1.0730767752435997e6
1.0868729192228387e6
1.0976136540356572e6
1.1085769141420654e6
1.118811624416429e6
1.1286166122125469e6
1.137913265640001e6
1.1466871283095991e6
1.1549852227739692e6
1.1626617492596589e6
1.1699102640082734e6
1.17630556676637e6
1.1824865620100107e6
1.1872175946246411e6
1.1925345268776296e6
1.1947249766488061e6
1.2001875528919017e6
1.1974787499660577e6
1.2067576992952463e6
100000.00635580422
99999.99002818255
100000.01589419298
99999.9749331671
100000.03962557376
99999.93759808462
100000.0981055017
99999.84615308927
100000.240487273
99999.62536974016
100000.58051822119
99999.10687589929
100001.35746479736
99997.9797436511
100002.88567917465
99996.23229199246
100003.82138102883
99999.8821111035
99983.45512633682
100074.25779100112
99744.95446436302
100809.85649824879
97592.8443045677
107471.96368045722
79681.4385952782
188833.98083282428
635931.0127413505
1.0179634312167945e6
1.0680962989658366e6
1.0725130030858729e6
1.086651045619485e6
1.0974127844623774e6
1.1084121788444608e6
1.118652011871896e6
1.1284540275035438e6
1.1377457270967842e6
1.1465185313913692e6
1.1548221457101868e6
1.1625146600499866e6
1.1697879499259877e6
1.176221530231439e6
1.182446393291779e6
1.1872334937655483e6
1.1926053041511024e6
1.1948438275421767e6
1.200376424458707e6
1.1976045532333544e6
1.2071367904777105e6
100000.00630026378
99999.9900020551
100000.01600030974
99999.9745277939
100000.04060316595
99999.9353746204
100000.10280360706
99999.83657314934
100000.25952179557
99999.58828412996
100000.65184939769
99998.97105867988
100001.61459929841
99997.49411424068
100003.80486322795
99994.47937036848
100007.21292154626
99993.1699441539
99997.16436169943
100045.09389073295
99809.61171750435
100657.77233257132
97950.80366589228
106500.90309822735
81782.84855639278
175005.80365077496
611325.1718036677
1.0064245468126144e6
1.0666992467167978e6
1.0694651994667083e6
1.0836438771779707e6
1.0941531310390104e6
1.1049572377554174e6
1.1149967133112436e6
1.1245993961484004e6
1.1336919771131936e6
1.1422664661849001e6
1.1503728391425281e6
1.157873311365097e6
1.1649576444497986e6
1.1712143389287286e6
1.1772661723835366e6
1.1819012547576386e6
1.187127532139851e6
1.1892403415689443e6
1.1947005528349467e6
1.191752294346605e6
1.2015476939219278e6
100000.00616171854
99999.99012979533
100000.01585280692
99999.97457185615
100000.04080571944
99999.93451721061
100000.10510067116
99999.83124210374
100000.27103158904
99999.56453536203
100000.69958887337
99998.8767762131
100001.7992310809
99997.13318057936
100004.51467453918
99993.06303900284
100010.10488946876
99987.06757364621
100010.54684526702
100014.3733900739
99882.82020425294
100474.08106231847
98409.19086775783
105213.21435134407
84765.41305483782
158915.45348512565
580535.453474256
991366.8071433062
1.0656515336015222e6
1.0667451393754133e6
1.0811117356005704e6
1.0914834582074913e6
1.1021782476551353e6
1.1120927601751129e6
1.1215621534662212e6
1.130519518197025e6
1.1389609268217103e6
1.1469398806209213e6
1.1543252955602617e6
1.1613064541456099e6
1.167482367227923e6
1.173467643518679e6
1.1780653882646926e6
1.1832680464558098e6
1.1853675149916122e6
1.1908736189271016e6
1.1877982666688599e6
1.197971322213467e6
100000.00592159113
99999.99045587394
100000.01537341732
99999.97521974712
100000.03994626472
99999.93556600096
100000.1039917024
99999.83202433278
100000.27156906258
99999.56048129949
100000.7120235542
99998.84560164397
100001.87158508548
99996.97047563328
100004.87866482849
99992.2380034744
100012.01867799128
99982.48055210596
100021.87893278293
99985.37989801206
99958.38344634903
100270.10634233587
98950.7728909781
103643.43897362809
88671.11673044434
141398.79509687226
543408.9904047066
971311.187512004
1.0638026860407959e6
1.063148944538171e6
1.0775214992709327e6
1.0876534941107847e6
1.0981164096978768e6
1.1077949077108868e6
1.1170173127604742e6
1.1257232937458234e6
1.1339092515072245e6
1.1416299209650154e6
1.1487587687958854e6
1.1554821011384055e6
1.1614081124309448e6
1.1671417509463443e6
1.1715026793650403e6
1.1764740200845057e6
1.1783492542956704e6
1.1837256271180555e6
1.1803437971996288e6
1.1909138050146676e6
100000.00558168886
99999.99097920935
100000.01456140514
99999.97647665338
100000.03800772032
99999.93856317118
100000.09937716644
99999.83914218325
100000.26064205027
99999.57720047874
100000.68678475883
99998.88274499007
100001.8201441277
99997.03156286626
100004.83984535358
99992.13193522263
100012.66747244379
99980.05776350622
100029.6909261007
99961.47319769626
100028.70368609948
100063.46880561257
99537.4807914502
101893.64748207705
93363.203210806
123558.77418824776
500357.9818679621
945564.2409732487
1.06123733273154e6
1.0592912375836074e6
1.0735449800146616e6
1.0834779585504385e6
1.093699145988992e6
1.1031387102496007e6
1.112104173728026e6
1.1205473552343221e6
1.128465961013035e6
1.135918981628173e6
1.1427881828421517e6
1.1492617409385599e6
1.1549633088584794e6
1.160494626166332e6
1.1646972961943573e6
1.1695480825087237e6
1.1713305532495219e6
1.1767313109184229e6
1.1731354978903928e6
1.184263883476688e6
100000.0051625494
99999.99165651323
100000.01348868897
99999.97820682084
100000.03523138756
99999.94306781626
100000.09205135594
99999.85116476024
100000.24080787084
99999.61016710057
100000.63177872561
99998.97466994423
100001.66745511438
99997.2805795472
100004.45103558584
99992.67937061607
100012.09643159062
99979.90308175274
100033.3403378272
99945.00809883486
100086.59604079036
99875.33410281345
100112.23536735895
100132.68804425668
98467.64020746818
106671.97813807812
451941.887266881
912957.7133203812
1.0572833119631475e6
1.0550499834774786e6
1.0688723098406042e6
1.0785947847608456e6
1.0884912583637089e6
1.0976197539720049e6
1.1062461578844048e6
1.1143368439915527e6
1.1218865998214753e6
1.1289548318127284e6
1.135425608720074e6
1.1414818318470076e6
1.1467521812845534e6
1.1518272278434217e6
1.1555572320411492e6
1.1599229233863314e6
1.1611867259986901e6
1.1662224601845092e6
1.1619818611578534e6
1.1736530391765588e6
100000.00469539505
99999.9924199502
100000.01227070607
99999.98018880075
100000.0320206542
99999.94832777536
100000.08340417533
99999.86551866295
100000.21681614021
99999.65064120956
100000.56300880184
99999.09226187106
100001.46597413819
99997.62430450274
100003.87441784695
99993.60790154457
100010.73630752823
99981.42006730208
100033.39944428191
99936.42198084199
100127.27862242256
99726.01815065903
100606.69698570162
98575.90894449022
103350.11547600187
92186.53069650351
399160.51249561645
872411.2317327701
1.0512179009315788e6
1.0506484526265971e6
1.0636244601387356e6
1.0731750082955603e6
1.082693665372695e6
1.0914703079679906e6
1.0997080419003214e6
1.1073928175207e6
1.1145173228548658e6
1.1211451218163646e6
1.1271690120355955e6
1.1327767831536839e6
1.137618067755119e6
1.1422905633317884e6
1.1456788874867845e6
1.1497762165666993e6
1.1508376934358566e6
1.155869281634317e6
1.1513175142637542e6
1.163828540546839e6
100000.004210544
99999.99320333287
100000.01102183943
99999.9822018889
100000.02878422776
99999.95357068896
100000.07488990274
99999.87945781492
100000.19385614907
99999.68882284644
100000.49897195026
99999.20070780524
100001.28098039128
99997.94120245472
100003.3338393028
99994.51284401074
100009.29660375432
99983.43517429799
100031.59681561436
99933.9152543721
100149.91461256244
99629.59726925066
100956.3924020185
97440.62565618298
107199.40991526829
81572.96125560428
343460.0774406871
822858.058840061
1.0418651300324413e6
1.046177779241389e6
1.0577494414297454e6
1.067160278634418e6
1.0762281384709012e6
1.0845870668635874e6
1.092356097570359e6
1.0995405178404388e6
1.106124727945793e6
1.1121680637545749e6
1.117557877093552e6
1.1224680614674657e6
1.1265369361580077e6
1.1303387936299432e6
1.1327331314039489e6
1.1357272390679268e6
1.1354847519758663e6
1.139401821363023e6
1.1332078344090995e6
1.1463224710712302e6
100000.00372682475
99999.99396710977
100000.00981159938
99999.98411324616
100000.02577216014
99999.95831834961
100000.06742866243
99999.8912010545
100000.17539248594
99999.71794755205
100000.45289891602
99999.2740962892
100001.16313897098
99998.13249176317
100003.02048470029
99995.02847547992
100008.46198748323
99984.71266417718
100030.00887386409
99934.49877196239
100156.93072129681
99591.46025247905
101115.77827259035
96896.14327648535
109220.91860952234
76040.03756142718
286777.88711127185
763520.7946879271
1.0276670661792072e6
1.041733626852746e6
1.051288298261726e6
1.0605940841826475e6
1.0691507561783043e6
1.0770335359038652e6
1.0842655771072377e6
1.0908727088911864e6
1.096832981818622e6
1.102206077574562e6
1.10688494556044e6
1.111048206231984e6
1.1143601640289882e6
1.1174144243281865e6
1.1191356728283626e6
1.1215648400035945e6
1.1209328831114925e6
1.1247108501581557e6
1.1181800753827242e6
1.1324201101071273e6
100000.00324648496
99999.99471139959
100000.00864025299
99999.98592834569
100000.02297476855
99999.96259047998
100000.06099686291
99999.90075519332
100000.16151800135
99999.73758689704
100000.42618253066
99999.30851253244
100001.12261337375
99998.17318034131
100002.99334848863
99995.02004242441
100008.52926285364
99984.61970698944
100029.90619405493
99935.77845749372
100152.0029918247
99607.83330284202
101074.97509402652
96997.46286516679
109037.34731809678
76095.2085626962
231431.15859578285
694137.6505771679
1.006649885832449e6
1.0372683866860829e6
1.0442921603050649e6
1.053484154694524e6
1.0614714589453593e6
1.0688070631910623e6
1.0754174921659008e6
1.0813410393903914e6
1.0865405450849163e6
1.0910602732163512e6
1.0947706288204575e6
1.0978132546126712e6
1.0997984343392213e6
1.101246203545766e6
1.10094462652632e6
1.1008885412359165e6
1.0969600478447624e6
1.0973544308712238e6
1.0857985776515177e6
1.0999573855781872e6
100000.00275837064
99999.99546995321
100000.00744728613
99999.98777710443
100000.0201401798
99999.96688505131
100000.05463283803
99999.90996439672
100000.14873315145
99999.75431224253
100000.40660889084
99999.32636474204
100001.11888881483
99998.13504702666
100003.12864005649
99994.69211065507
100009.18235579427
99983.57987062968
100030.89385543231
99937.48152886865
100137.89532888781
99667.56187880387
100867.42970968297
97645.9448872115
106955.11757187026
81204.59169704324
180059.6824838244
615220.6611186044
976478.6309157574
1.0324694147280861e6
1.0368785092008895e6
1.0458605931782932e6
1.0532362809974593e6
1.0599556768369493e6
1.065869802278011e6
1.0710217576778254e6
1.0753615889893079e6
1.078921893854831e6
1.0815660442475756e6
1.083426042009727e6
1.084132316658024e6
1.084217205197665e6
1.082596168224729e6
1.0812631267646896e6
1.0765414436689722e6
1.076045262251897e6
1.0644998819890306e6
1.077896036090393e6
100000.00224844478
99999.99628585823
100000.00615237837
99999.9898338219
100000.01691900702
99999.97190941763
100000.04692648035
99999.92162011225
100000.1315483789
99999.77884285616
100000.37337500983
99999.36773224808
100001.0753784264
99998.16289128363
100003.15652252556
99994.53686709436
100009.5527063624
99983.03922675498
100030.81562827503
99941.98380237029
100114.89973596158
99756.39184992766
100560.25643521333
98613.92694410379
103789.7567521712
89743.56886044893
135725.17362520975
528337.4065726303
934512.526774615
1.026499196947584e6
1.0292099688125099e6
1.0377444727553801e6
1.0444839552938957e6
1.0505145385278712e6
1.0556524619370734e6
1.059928477028586e6
1.0632692302287132e6
1.0656740756869928e6
1.0669572680428643e6
1.06717131439976e6
1.065814544353532e6
1.0632115589039673e6
1.0578796767469004e6
1.0513831931052892e6
1.0387040761325749e6
1.0281071517298552e6
998678.4830997211
1.0052952664891162e6
100000.00171332395
99999.99717895726
100000.00471281083
99999.99220220701
100000.01308256376
99999.97815928943
100000.03682618383
99999.9379174805
100000.10543210847
99999.82043811398
100000.30771913446
99999.47032003387
100000.91695378261
99998.40491712319
100002.78842633912
99995.10593967623
100008.61540416641
99984.81437263485
100026.72860824026
99953.1581787517
100081.22439295892
99860.99719300328
100231.13402729119
99622.57045289746
100592.67086634957
99055.41422173873
101866.90983874968
436477.3042057157
878023.5177363717
1.017670840570639e6
1.0214598291565662e6
1.0291556338205453e6
1.0352627365802288e6
1.0405435424401275e6
1.0448418121132205e6
1.0481628780180268e6
1.0504115088493824e6
1.0515541764211648e6
1.051370658476239e6
1.049858106209799e6
1.0464893822821223e6
1.0415124361811662e6
1.0335936812266193e6
1.024104318691414e6
1.0093269985041484e6
994475.6135433941
966312.9204917031
933130.2852668168
100000.00117008429
99999.99812077124
100000.00316952665
99999.9948199884
100000.00871110344
99999.98554155629
100000.0243888465
99999.95896175267
100000.06977625958
99999.88101242209
100000.20456640731
99999.6464644134
100000.61515323046
99998.92432769512
100001.8884494643
99996.68220093875
100005.80481031995
99989.97439086193
100016.81107920356
99973.4900262547
100035.96507329332
99970.62502555287
99943.00001947593
100423.04907992159
98264.11543061344
106100.53155857458
81501.80032592303
344255.4263171589
804893.6421869856
1.0032344563762109e6
1.0137398956064133e6
1.0201229190818546e6
1.025623744534911e6
1.0301088318458889e6
1.0335140455562152e6
1.0358082003323298e6
1.036867363087412e6
1.0366104768579358e6
1.0347471725581029e6
1.0311563389714472e6
1.0251254134202183e6
1.0165083681618554e6
1.0033086782815611e6
985290.1014521954
955691.6792503203
912672.2491134489
826794.0194640518
674863.8125709819
100000.00065687746
99999.99903134607
100000.0016559456
99999.99743744748
100000.00424657679
99999.99325412398
100000.01105363216
99999.98216361056
100000.02922579552
99999.95225648588
100000.07873178872
99999.8698962691
100000.21627778346
99999.64019982479
100000.59678649668
99999.02519551996
100001.53117603862
99997.81711617175
100002.30997787025
100000.58306885896
99984.54681433781
100070.7910209505
99740.48650148978
100860.81103953894
97270.36926561731
108733.18082913397
75416.93387254023
257336.02739971151
714708.1818510845
979548.3270625529
1.0060236619004367e6
1.0107405731366507e6
1.0156442540160025e6
1.0193044854718214e6
1.02178052183065e6
1.023003236090165e6
1.0228211919909784e6
1.0211027350840354e6
1.0174972155867656e6
1.0117739654401991e6
1.0030820024717874e6
991009.1453271211
973262.1730185868
948923.9196595679
910994.3230553686
856144.2212081738
760519.366210968
604299.0684989372
100000.00022256932
99999.99980281093
100000.00035898245
99999.99969225402
100000.00035893839
100000.0000301691
99999.9992015319
100000.00302645385
99999.99227969405
100000.01807638665
99999.96072594388
100000.08272242527
99999.83018313975
100000.34422737613
99999.30753352896
100001.39238536062
99997.18377271337
100005.77255677206
99987.89579086882
100026.18484930761
99940.87587314312
100139.75297550799
99651.42106990823
100910.07989798574
97539.61389105451
107106.44096434707
80884.54517623663
181490.14439138753
609305.3581747193
942326.5443762927
997869.5329871416
1.0011988212858312e6
1.005425649537872e6
1.008241606795431e6
1.0097657159931698e6
1.009897842585564e6
1.0084574924192937e6
1.0052713088584839e6
999933.4923327877
992131.5620780675
980917.9188885196
965732.556084892
944173.790191975
915196.0015148112
872182.1098536975
812963.8043945301
718355.3191747204
585145.3164708539
99999.9999094298
100000.00034066002
99999.9994470562
100000.00125332712
99999.99767464597
100000.00466370254
99999.99114723457
100000.01709142516
99999.96754649
100000.06182014954
99999.88283686056
100000.22225351685
99999.57874172505
100000.79953283144
99998.4804521769
100002.89516035719
99994.46657891436
100010.62000124984
99979.50270654137
100039.8453313456
99921.72006365907
100155.82928430887
99683.26635384068
100660.76244216123
98573.26719276201
103291.30143052728
92385.73354133373
122742.70382540971
493094.8354546586
886600.4686774865
987657.083933887
991686.758316507
995051.8652858482
997022.6887605415
997593.3596481618
996646.4838848321
993974.2872763912
989374.1650103002
982402.3784255023
972701.633985939
959282.1905226854
941559.4216466249
917164.4803991555
885299.8254644538
839898.0995301078
780737.5155965732
691825.798896289
580759.755885523
99999.99973660846
100000.00060304823
99999.99899923138
100000.0019636145
99999.99649974225
100000.00655470988
99999.9880655326
100000.02205366078
99999.9595529617
100000.07457644127
99999.8626312289
100000.25378864812
99999.53053846819
100000.87053146346
99998.38288917323
100003.00908807968
99994.39660840917
100010.42653457592
99980.66423952101
100035.56583404784
99935.60783789167
100112.94892921418
99813.38333189368
100267.57688795627
99752.46703524987
99659.98153740882
103177.57921073004
86864.77574563741
374009.907247103
807724.9706663438
971740.6908829561
982199.2539783104
984559.3189496243
985724.6464670168
985373.2158543683
983390.481417974
979552.5247876643
973638.6701219629
965189.6684820788
953837.0670946517
938598.4143390118
918944.9442171258
892646.1817350762
859268.8505056214
813453.409630751
756437.395633433
675303.615844888
581299.6532839342
99999.99969252857
100000.00061813906
99999.99897223922
100000.00190720374
99999.99668655256
100000.00597798289
99999.989451764
100000.01885546891
99999.9665339972
100000.05967942062
99999.89378332027
100000.18940816518
99999.66240798487
100000.60195495519
99998.92790360254
100001.90514589947
99996.63216636801
100005.89354075136
99989.8845309702
100016.71459908277
99974.46461444002
100031.90296273741
99985.30972782968
99893.73909104246
100591.50397450577
97699.30973059854
108090.90199558224
75430.29647280886
262788.03270667244
704233.5442763885
944708.5754502937
972474.8027763427
974016.6717547259
974430.8040898427
973214.4763325001
970263.5685758537