# vtk DataFile Version 2.0
JuliaCFD
ASCII
DATASET UNSTRUCTURED_GRID

POINTS 32898 float
0.0 0.0 -0.05
0.0125 0.0 -0.05
0.025 0.0 -0.05
0.0375 0.0 -0.05
0.05 0.0 -0.05
0.0625 0.0 -0.05
0.075 0.0 -0.05
0.0875 0.0 -0.05
0.1 0.0 -0.05
0.1125 0.0 -0.05
0.125 0.0 -0.05
0.1375 0.0 -0.05
0.15 0.0 -0.05
0.1625 0.0 -0.05
0.175 0.0 -0.05
0.1875 0.0 -0.05
0.2 0.0 -0.05
0.2125 0.0 -0.05
0.225 0.0 -0.05
0.2375 0.0 -0.05
0.25 0.0 -0.05
0.2625 0.0 -0.05
0.275 0.0 -0.05
0.2875 0.0 -0.05
0.3 0.0 -0.05
0.3125 0.0 -0.05
0.325 0.0 -0.05
0.3375 0.0 -0.05
0.35 0.0 -0.05
0.3625 0.0 -0.05
0.375 0.0 -0.05
0.3875 0.0 -0.05
0.4 0.0 -0.05
0.4125 0.0 -0.05
0.425 0.0 -0.05
0.4375 0.0 -0.05
0.45 0.0 -0.05
0.4625 0.0 -0.05
0.475 0.0 -0.05
0.4875 0.0 -0.05
0.5 0.0 -0.05
0.5125 0.0 -0.05
0.525 0.0 -0.05
0.5375 0.0 -0.05
0.55 0.0 -0.05
0.5625 0.0 -0.05
0.575 0.0 -0.05
0.5875 0.0 -0.05
0.6 0.0 -0.05
0.0 0.0125 -0.05
0.0125 0.0125 -0.05
0.025 0.0125 -0.05
0.0375 0.0125 -0.05
0.05 0.0125 -0.05
0.0625 0.0125 -0.05
0.075 0.0125 -0.05
0.0875 0.0125 -0.05
0.1 0.0125 -0.05
0.1125 0.0125 -0.05
0.125 0.0125 -0.05
0.1375 0.0125 -0.05
0.15 0.0125 -0.05
0.1625 0.0125 -0.05
0.175 0.0125 -0.05
0.1875 0.0125 -0.05
0.2 0.0125 -0.05
0.2125 0.0125 -0.05
0.225 0.0125 -0.05
0.2375 0.0125 -0.05
0.25 0.0125 -0.05
0.2625 0.0125 -0.05
0.275 0.0125 -0.05
0.2875 0.0125 -0.05
0.3 0.0125 -0.05
0.3125 0.0125 -0.05
0.325 0.0125 -0.05
0.3375 0.0125 -0.05
0.35 0.0125 -0.05
0.3625 0.0125 -0.05
0.375 0.0125 -0.05
0.3875 0.0125 -0.05
0.4 0.0125 -0.05
0.4125 0.0125 -0.05
0.425 0.0125 -0.05
0.4375 0.0125 -0.05
0.45 0.0125 -0.05
0.4625 0.0125 -0.05
0.475 0.0125 -0.05
0.4875 0.0125 -0.05
0.5 0.0125 -0.05
0.5125 0.0125 -0.05
0.525 0.0125 -0.05
0.5375 0.0125 -0.05
0.55 0.0125 -0.05
0.5625 0.0125 -0.05
0.575 0.0125 -0.05
0.5875 0.0125 -0.05
0.6 0.0125 -0.05
0.0 0.025 -0.05
0.0125 0.025 -0.05
0.025 0.025 -0.05
0.0375 0.025 -0.05
0.05 0.025 -0.05
0.0625 0.025 -0.05
0.075 0.025 -0.05
0.0875 0.025 -0.05
0.1 0.025 -0.05
0.1125 0.025 -0.05
0.125 0.025 -0.05
0.1375 0.025 -0.05
0.15 0.025 -0.05
0.1625 0.025 -0.05
0.175 0.025 -0.05
0.1875 0.025 -0.05
0.2 0.025 -0.05
0.2125 0.025 -0.05
0.225 0.025 -0.05
0.2375 0.025 -0.05
0.25 0.025 -0.05
0.2625 0.025 -0.05
0.275 0.025 -0.05
0.2875 0.025 -0.05
0.3 0.025 -0.05
0.3125 0.025 -0.05
0.325 0.025 -0.05
0.3375 0.025 -0.05
0.35 0.025 -0.05
0.3625 0.025 -0.05
0.375 0.025 -0.05
0.3875 0.025 -0.05
0.4 0.025 -0.05
0.4125 0.025 -0.05
0.425 0.025 -0.05
0.4375 0.025 -0.05
0.45 0.025 -0.05
0.4625 0.025 -0.05
0.475 0.025 -0.05
0.4875 0.025 -0.05
0.5 0.025 -0.05
0.5125 0.025 -0.05
0.525 0.025 -0.05
0.5375 0.025 -0.05
0.55 0.025 -0.05
0.5625 0.025 -0.05
0.575 0.025 -0.05
0.5875 0.025 -0.05
0.6 0.025 -0.05
0.0 0.0375 -0.05
0.0125 0.0375 -0.05
0.025 0.0375 -0.05
0.0375 0.0375 -0.05
0.05 0.0375 -0.05
0.0625 0.0375 -0.05
0.075 0.0375 -0.05
0.0875 0.0375 -0.05
0.1 0.0375 -0.05
0.1125 0.0375 -0.05
0.125 0.0375 -0.05
0.1375 0.0375 -0.05
0.15 0.0375 -0.05
0.1625 0.0375 -0.05
0.175 0.0375 -0.05
0.1875 0.0375 -0.05
0.2 0.0375 -0.05
0.2125 0.0375 -0.05
0.225 0.0375 -0.05
0.2375 0.0375 -0.05
0.25 0.0375 -0.05
0.2625 0.0375 -0.05
0.275 0.0375 -0.05
0.2875 0.0375 -0.05
0.3 0.0375 -0.05
0.3125 0.0375 -0.05
0.325 0.0375 -0.05
0.3375 0.0375 -0.05
0.35 0.0375 -0.05
0.3625 0.0375 -0.05
0.375 0.0375 -0.05
0.3875 0.0375 -0.05
0.4 0.0375 -0.05
0.4125 0.0375 -0.05
0.425 0.0375 -0.05
0.4375 0.0375 -0.05
0.45 0.0375 -0.05
0.4625 0.0375 -0.05
0.475 0.0375 -0.05
0.4875 0.0375 -0.05
0.5 0.0375 -0.05
0.5125 0.0375 -0.05
0.525 0.0375 -0.05
0.5375 0.0375 -0.05
0.55 0.0375 -0.05
0.5625 0.0375 -0.05
0.575 0.0375 -0.05
0.5875 0.0375 -0.05
0.6 0.0375 -0.05
0.0 0.05 -0.05
0.0125 0.05 -0.05
0.025 0.05 -0.05
0.0375 0.05 -0.05
0.05 0.05 -0.05
0.0625 0.05 -0.05
0.075 0.05 -0.05
0.0875 0.05 -0.05
0.1 0.05 -0.05
0.1125 0.05 -0.05
0.125 0.05 -0.05
0.1375 0.05 -0.05
0.15 0.05 -0.05
0.1625 0.05 -0.05
0.175 0.05 -0.05
0.1875 0.05 -0.05
0.2 0.05 -0.05
0.2125 0.05 -0.05
0.225 0.05 -0.05
0.2375 0.05 -0.05
0.25 0.05 -0.05
0.2625 0.05 -0.05
0.275 0.05 -0.05
0.2875 0.05 -0.05
0.3 0.05 -0.05
0.3125 0.05 -0.05
0.325 0.05 -0.05
0.3375 0.05 -0.05
0.35 0.05 -0.05
0.3625 0.05 -0.05
0.375 0.05 -0.05
0.3875 0.05 -0.05
0.4 0.05 -0.05
0.4125 0.05 -0.05
0.425 0.05 -0.05
0.4375 0.05 -0.05
0.45 0.05 -0.05
0.4625 0.05 -0.05
0.475 0.05 -0.05
0.4875 0.05 -0.05
0.5 0.05 -0.05
0.5125 0.05 -0.05
0.525 0.05 -0.05
0.5375 0.05 -0.05
0.55 0.05 -0.05
0.5625 0.05 -0.05
0.575 0.05 -0.05
0.5875 0.05 -0.05
0.6 0.05 -0.05
0.0 0.0625 -0.05
0.0125 0.0625 -0.05
0.025 0.0625 -0.05
0.0375 0.0625 -0.05
0.05 0.0625 -0.05
0.0625 0.0625 -0.05
0.075 0.0625 -0.05
0.0875 0.0625 -0.05
0.1 0.0625 -0.05
0.1125 0.0625 -0.05
0.125 0.0625 -0.05
0.1375 0.0625 -0.05
0.15 0.0625 -0.05
0.1625 0.0625 -0.05
0.175 0.0625 -0.05
0.1875 0.0625 -0.05
0.2 0.0625 -0.05
0.2125 0.0625 -0.05
0.225 0.0625 -0.05
0.2375 0.0625 -0.05
0.25 0.0625 -0.05
0.2625 0.0625 -0.05
0.275 0.0625 -0.05
0.2875 0.0625 -0.05
0.3 0.0625 -0.05
0.3125 0.0625 -0.05
0.325 0.0625 -0.05
0.3375 0.0625 -0.05
0.35 0.0625 -0.05
0.3625 0.0625 -0.05
0.375 0.0625 -0.05
0.3875 0.0625 -0.05
0.4 0.0625 -0.05
0.4125 0.0625 -0.05
0.425 0.0625 -0.05
0.4375 0.0625 -0.05
0.45 0.0625 -0.05
0.4625 0.0625 -0.05
0.475 0.0625 -0.05
0.4875 0.0625 -0.05
0.5 0.0625 -0.05
0.5125 0.0625 -0.05
0.525 0.0625 -0.05
0.5375 0.0625 -0.05
0.55 0.0625 -0.05
0.5625 0.0625 -0.05
0.575 0.0625 -0.05
0.5875 0.0625 -0.05
0.6 0.0625 -0.05
0.0 0.075 -0.05
0.0125 0.075 -0.05
0.025 0.075 -0.05
0.0375 0.075 -0.05
0.05 0.075 -0.05
0.0625 0.075 -0.05
0.075 0.075 -0.05
0.0875 0.075 -0.05
0.1 0.075 -0.05
0.1125 0.075 -0.05
0.125 0.075 -0.05
0.1375 0.075 -0.05
0.15 0.075 -0.05
0.1625 0.075 -0.05
0.175 0.075 -0.05
0.1875 0.075 -0.05
0.2 0.075 -0.05
0.2125 0.075 -0.05
0.225 0.075 -0.05
0.2375 0.075 -0.05
0.25 0.075 -0.05
0.2625 0.075 -0.05
0.275 0.075 -0.05
0.2875 0.075 -0.05
0.3 0.075 -0.05
0.3125 0.075 -0.05
0.325 0.075 -0.05
0.3375 0.075 -0.05
0.35 0.075 -0.05
0.3625 0.075 -0.05
0.375 0.075 -0.05
0.3875 0.075 -0.05
0.4 0.075 -0.05
0.4125 0.075 -0.05
0.425 0.075 -0.05
0.4375 0.075 -0.05
0.45 0.075 -0.05
0.4625 0.075 -0.05
0.475 0.075 -0.05
0.4875 0.075 -0.05
0.5 0.075 -0.05
0.5125 0.075 -0.05
0.525 0.075 -0.05
0.5375 0.075 -0.05
0.55 0.075 -0.05
0.5625 0.075 -0.05
0.575 0.075 -0.05
0.5875 0.075 -0.05
0.6 0.075 -0.05
0.0 0.0875 -0.05
0.0125 0.0875 -0.05
0.025 0.0875 -0.05
0.0375 0.0875 -0.05
0.05 0.0875 -0.05
0.0625 0.0875 -0.05
0.075 0.0875 -0.05
0.0875 0.0875 -0.05
0.1 0.0875 -0.05
0.1125 0.0875 -0.05
0.125 0.0875 -0.05
0.1375 0.0875 -0.05
0.15 0.0875 -0.05
0.1625 0.0875 -0.05
0.175 0.0875 -0.05
0.1875 0.0875 -0.05
0.2 0.0875 -0.05
0.2125 0.0875 -0.05
0.225 0.0875 -0.05
0.2375 0.0875 -0.05
0.25 0.0875 -0.05
0.2625 0.0875 -0.05
0.275 0.0875 -0.05
0.2875 0.0875 -0.05
0.3 0.0875 -0.05
0.3125 0.0875 -0.05
0.325 0.0875 -0.05
0.3375 0.0875 -0.05
0.35 0.0875 -0.05
0.3625 0.0875 -0.05
0.375 0.0875 -0.05
0.3875 0.0875 -0.05
0.4 0.0875 -0.05
0.4125 0.0875 -0.05
0.425 0.0875 -0.05
0.4375 0.0875 -0.05
0.45 0.0875 -0.05
0.4625 0.0875 -0.05
0.475 0.0875 -0.05
0.4875 0.0875 -0.05
0.5 0.0875 -0.05
0.5125 0.0875 -0.05
0.525 0.0875 -0.05
0.5375 0.0875 -0.05
0.55 0.0875 -0.05
0.5625 0.0875 -0.05
0.575 0.0875 -0.05
0.5875 0.0875 -0.05
0.6 0.0875 -0.05
0.0 0.1 -0.05
0.0125 0.1 -0.05
0.025 0.1 -0.05
0.0375 0.1 -0.05
0.05 0.1 -0.05
0.0625 0.1 -0.05
0.075 0.1 -0.05
0.0875 0.1 -0.05
0.1 0.1 -0.05
0.1125 0.1 -0.05
0.125 0.1 -0.05
0.1375 0.1 -0.05
0.15 0.1 -0.05
0.1625 0.1 -0.05
0.175 0.1 -0.05
0.1875 0.1 -0.05
0.2 0.1 -0.05
0.2125 0.1 -0.05
0.225 0.1 -0.05
0.2375 0.1 -0.05
0.25 0.1 -0.05
0.2625 0.1 -0.05
0.275 0.1 -0.05
0.2875 0.1 -0.05
0.3 0.1 -0.05
0.3125 0.1 -0.05
0.325 0.1 -0.05
0.3375 0.1 -0.05
0.35 0.1 -0.05
0.3625 0.1 -0.05
0.375 0.1 -0.05
0.3875 0.1 -0.05
0.4 0.1 -0.05
0.4125 0.1 -0.05
0.425 0.1 -0.05
0.4375 0.1 -0.05
0.45 0.1 -0.05
0.4625 0.1 -0.05
0.475 0.1 -0.05
0.4875 0.1 -0.05
0.5 0.1 -0.05
0.5125 0.1 -0.05
0.525 0.1 -0.05
0.5375 0.1 -0.05
0.55 0.1 -0.05
0.5625 0.1 -0.05
0.575 0.1 -0.05
0.5875 0.1 -0.05
0.6 0.1 -0.05
0.0 0.1125 -0.05
0.0125 0.1125 -0.05
0.025 0.1125 -0.05
0.0375 0.1125 -0.05
0.05 0.1125 -0.05
0.0625 0.1125 -0.05
0.075 0.1125 -0.05
0.0875 0.1125 -0.05
0.1 0.1125 -0.05
0.1125 0.1125 -0.05
0.125 0.1125 -0.05
0.1375 0.1125 -0.05
0.15 0.1125 -0.05
0.1625 0.1125 -0.05
0.175 0.1125 -0.05
0.1875 0.1125 -0.05
0.2 0.1125 -0.05
0.2125 0.1125 -0.05
0.225 0.1125 -0.05
0.2375 0.1125 -0.05
0.25 0.1125 -0.05
0.2625 0.1125 -0.05
0.275 0.1125 -0.05
0.2875 0.1125 -0.05
0.3 0.1125 -0.05
0.3125 0.1125 -0.05
0.325 0.1125 -0.05
0.3375 0.1125 -0.05
0.35 0.1125 -0.05
0.3625 0.1125 -0.05
0.375 0.1125 -0.05
0.3875 0.1125 -0.05
0.4 0.1125 -0.05
0.4125 0.1125 -0.05
0.425 0.1125 -0.05
0.4375 0.1125 -0.05
0.45 0.1125 -0.05
0.4625 0.1125 -0.05
0.475 0.1125 -0.05
0.4875 0.1125 -0.05
0.5 0.1125 -0.05
0.5125 0.1125 -0.05
0.525 0.1125 -0.05
0.5375 0.1125 -0.05
0.55 0.1125 -0.05
0.5625 0.1125 -0.05
0.575 0.1125 -0.05
0.5875 0.1125 -0.05
0.6 0.1125 -0.05
0.0 0.125 -0.05
0.0125 0.125 -0.05
0.025 0.125 -0.05
0.0375 0.125 -0.05
0.05 0.125 -0.05
0.0625 0.125 -0.05
0.075 0.125 -0.05
0.0875 0.125 -0.05
0.1 0.125 -0.05
0.1125 0.125 -0.05
0.125 0.125 -0.05
0.1375 0.125 -0.05
0.15 0.125 -0.05
0.1625 0.125 -0.05
0.175 0.125 -0.05
0.1875 0.125 -0.05
0.2 0.125 -0.05
0.2125 0.125 -0.05
0.225 0.125 -0.05
0.2375 0.125 -0.05
0.25 0.125 -0.05
0.2625 0.125 -0.05
0.275 0.125 -0.05
0.2875 0.125 -0.05
0.3 0.125 -0.05
0.3125 0.125 -0.05
0.325 0.125 -0.05
0.3375 0.125 -0.05
0.35 0.125 -0.05
0.3625 0.125 -0.05
0.375 0.125 -0.05
0.3875 0.125 -0.05
0.4 0.125 -0.05
0.4125 0.125 -0.05
0.425 0.125 -0.05
0.4375 0.125 -0.05
0.45 0.125 -0.05
0.4625 0.125 -0.05
0.475 0.125 -0.05
0.4875 0.125 -0.05
0.5 0.125 -0.05
0.5125 0.125 -0.05
0.525 0.125 -0.05
0.5375 0.125 -0.05
0.55 0.125 -0.05
0.5625 0.125 -0.05
0.575 0.125 -0.05
0.5875 0.125 -0.05
0.6 0.125 -0.05
0.0 0.1375 -0.05
0.0125 0.1375 -0.05
0.025 0.1375 -0.05
0.0375 0.1375 -0.05
0.05 0.1375 -0.05
0.0625 0.1375 -0.05
0.075 0.1375 -0.05
0.0875 0.1375 -0.05
[...]
CELL_DATA 16128
SCALARS P float 1
LOOKUP_TABLE default
99999.99843476905
100000.003613152
99999.99366917016
100000.01236180685
99999.97767920967
100000.04121753786
99999.92578223516
100000.13387676037
99999.7607663843
100000.42677820846
99999.2410561342
100001.34982535656
99997.59412548864
100004.3132173017
99992.17951795427
100014.4354977672
99972.57674916646
100054.1129066145
99887.50113680081
100247.44951053688
99422.46116438319
101434.26839763574
96377.3516048394
110204.7582190335
75286.9224214366
266009.2006189029
746266.0368880325
1.049169580521213e6
1.0614407836461617e6
1.0727650561601452e6
1.0848062260249413e6
1.0959115479608132e6
1.1067393573275558e6
1.1170160396934627e6
1.1268256917915372e6
1.136149236204362e6
1.1449495117561717e6
1.1532803813903632e6
1.1609915057888615e6
1.1682786524593274e6
1.174712551718437e6
1.1809361086073855e6
1.1857083278508845e6
1.1910675353536443e6
1.193312174710519e6
1.1987857210466755e6
1.1962406077014816e6
1.205255185877149e6
99999.9984196842
100000.00360614524
99999.99361942001
100000.01243652706
99999.97745504048
100000.04165984895
99999.92484094527
100000.13570632551
99999.75727189823
100000.43319856143
99999.22966637804
100001.36924402538
99997.56275627925
100004.36032780535
99992.1174569272
100014.49688514929
99972.57619524313
100053.89739812941
99888.33003161226
100245.24005996733
99427.72816601505
101423.88953236869
96395.37660533942
110183.15598344816
75264.68612381611
263105.087308103
744039.9221532788
1.0520446535445303e6
1.0663511596309014e6
1.078046642393868e6
1.0904668469879809e6
1.1017264027361108e6
1.1126677593007858e6
1.1230309576026078e6
1.1329264236406689e6
1.1423406815381781e6
1.1512386367461146e6
1.159672812105714e6
1.1674894957337305e6
1.1748812144623243e6
1.1814126948126336e6
1.1877246912416928e6
1.1925652556476227e6
1.1979794456997723e6
1.2002358255248193e6
1.2057306068675274e6
1.2030909636927536e6
1.2122037878907253e6
99999.99886217133
100000.00275842885
99999.995042589
100000.00986609675
99999.98190927807
100000.03377259617
99999.93863976235
100000.11142863233
99999.7998421233
100000.35847377955
99999.36068855766
100001.13956408312
99997.9651263818
100003.6559686151
99993.34975323496
100012.34414158214
99976.33469796024
100047.35932865668
99899.68430662985
100225.73940189845
99460.80685295531
101369.58204703883
96475.52793997846
110076.7041646437
75227.27852688626
254388.23635525437
731694.6750268062
1.0461394669783871e6
1.063142304406458e6
1.0738288879851967e6
1.0861292731917803e6
1.0971436041743208e6
1.1079110285583257e6
1.1181002495844697e6
1.1278257189238996e6
1.1370662652421794e6
1.145787694191115e6
1.1540428137412695e6
1.1616826885987385e6
1.1689003724265804e6
1.1752700212097054e6
1.181428524320709e6
1.186141459154676e6
1.1914407071112087e6
1.1936188669977172e6
1.1990670114938102e6
1.1963526606096586e6
1.2056244950820438e6
99999.99946567944
100000.00159732862
99999.99698679401
100000.00635886403
99999.98797780603
100000.02305095037
99999.95735828567
100000.07858509065
99999.85727011145
100000.25799370093
99999.53627533586
100000.83285820857
99998.50055053874
100002.7217596758
99994.97992040514
100009.50032499667
99981.30380287199
100038.67846591055
99914.91512797201
100199.06880265623
99507.67683989886
101287.44367117334
96613.06931564347
109834.65135253435
75419.65760751379
241717.46435654143
714897.5090535157
1.0412421263234247e6
1.0634516947239663e6
1.0733042263194963e6
1.0859320322793056e6
1.0969501106851716e6
1.107751474066927e6
1.1179405610717328e6
1.1276617983837298e6
1.1368962811533834e6
1.1456165026171354e6
1.153877152740726e6
1.1615331712117314e6
1.1687757080534468e6
1.1751835947270093e6
1.1813857635173392e6
1.18615446942666e6
1.1915081820833685e6
1.193734107777764e6
1.1992517891839542e6
1.1964743747844181e6
1.2059989517030043e6
100000.00015231449
100000.00028035075
99999.99918985223
100000.00239536562
99999.9948236559
100000.01098561232
99999.97837801413
100000.04178604884
99999.92148449273
100000.14583709443
99999.73200263636
100000.49119275656
99999.09718792562
100001.67884262967
99996.80698539295
100006.28999709817
99986.97990160894
100028.5749230157
99933.15236647888
100165.72942405072
99570.01737572213
101167.42564432081
96842.59083356358
109333.55163931739
76152.42528908465
225094.82694620173
691227.8078094808
1.0325779029650782e6
1.0619946567636754e6
1.0702411201923357e6
1.0829412006087548e6
1.093690916198688e6
1.1043066486592253e6
1.1142945047313555e6
1.1238187746530615e6
1.1328544684600069e6
1.141376532830543e6
1.1494392281250746e6
1.1569019996059078e6
1.1639539525746263e6
1.1701831741574288e6
1.1762105555784774e6
1.1808256952378515e6
1.1860324999747043e6
1.188131698309162e6
1.1935759180811967e6
1.1906217487907934e6
1.2004086337718447e6
100000.00083656026
99999.99897868642
100000.0013670113
99999.99849636789
100000.00154124109
99999.99918777321
99999.99887074516
100000.00601377261
99999.98375320689
100000.03728448508
99999.92124515014
100000.16078436308
99999.67528579116
100000.66387702353
99998.59915292943
100003.10023557232
99992.73159147562
100018.0329164237
99952.9810617023
100127.3423728484
99647.2432385112
101004.01252586869
97190.93757156486
108467.96570058397
77741.96137761744
205414.11625169028
661364.0182427136
1.0212679631746948e6
1.0610328553630519e6
1.0674937892110408e6
1.0804488757427277e6
1.0910268646788965e6
1.1015412225428794e6
1.1113985125488576e6
1.120789541062996e6
1.12968863907246e6
1.138076989692946e6
1.1460113488127657e6
1.1533581055407948e6
1.1603057514309508e6
1.1664529841897052e6
1.1724125662515413e6
1.1769892163045972e6
1.1821712723507935e6
1.1842563084290642e6
1.1897453881697832e6
1.1866639778049707e6
1.1968275308955112e6
100000.00144531713
99999.99783652532
100000.00327806908
99999.995099225
100000.00736954174
99999.98901144463
100000.01645161115
99999.9754877065
100000.03662220392
99999.94550886194
100000.0807199556
99999.88275194382
100000.16223715426
99999.80477357822
100000.13160602789
100000.32335345415
99997.88097251533
100008.19532688153
99972.54646293203
100086.62632125545
99736.19776713263
100797.53173144229
97672.01173996637
107170.17049647355
80463.62440719076
183449.13966191182
624875.4825466726
1.0058028497841967e6
1.0595009126314134e6
1.0638000179882399e6
1.0769053658964634e6
1.0871949841862898e6
1.0974922890925359e6
1.107108703516449e6
1.1162543478147148e6
1.1249013507122267e6
1.133034004593868e6
1.1407092406368444e6
1.147798383170968e6
1.1544868932334566e6
1.1603828361307776e6
1.1660894087372604e6
1.1704280589614862e6
1.1753776961401787e6
1.1772377966879238e6
1.1825961234236204e6
1.1792082258205032e6
1.1897674969242567e6
100000.00193045218
99999.99694567228
100000.00476967104
99999.99247933034
100000.01183050586
99999.98130497105
100000.0296239656
99999.95287343717
100000.0753343372
99999.87906109368
100000.19498726756
99999.6851699245
100000.50672257727
99999.19595909752
100001.22978448887
99998.28336012743
100001.82559613178
100000.17761306073
99989.79833424525
100047.2439311452
99830.60203532125
100558.05875773595
98275.91122600286
105449.0155265652
84453.94140480005
160271.93223665244
581916.4927700559
985500.3429320576
1.0576555883238018e6
1.0597598463784044e6
1.0729962966855997e6
1.0830163072913936e6
1.0930903748664872e6
1.1024609733785912e6
1.1113506060995164e6
1.1197333399225632e6
1.1275979152142962e6
1.1350043817049188e6
1.141832720923216e6
1.1482701583838083e6
1.1539403242828825e6
1.1594432542706807e6
1.163622440656528e6
1.168450317625844e6
1.1702168415281915e6
1.175598193454914e6
1.1719965115300252e6
1.1831124499550676e6
100000.00227397075
99999.99633431081
100000.00579485696
99999.99071165179
100000.01480012848
99999.97627303493
100000.03804087795
99999.93877321405
100000.09880767325
99999.83995627247
100000.26014811221
99999.57583796623
100000.69267250273
99998.87127970385
100001.82116361705
99997.1376491925
100004.22076477383
99994.74125889971
100003.04428105295
100012.99529598889
99921.91604749509
100305.13963739619
98963.33683149534
103413.92694674453
89613.62994214738
137133.08771742726
532715.9174238857
959124.4166401495
1.055028678631283e6
1.0552125681140951e6
1.0684078261873273e6
1.078123440605269e6
1.087896517073702e6
1.096948916745399e6
1.1055009583758959e6
1.1135300273094769e6
1.121025278490849e6
1.1280460794284828e6
1.134475095186098e6
1.1404942037947818e6
1.1457322006915798e6
1.1507779924664956e6
1.1544839145103924e6
1.1588260826021787e6
1.1600739156648018e6
1.1650893167658031e6
1.1608435987827107e6
1.1725003862284555e6
100000.00248502726
99999.99597332036
100000.00640407696
99999.98968693685
100000.01648654033
99999.97350813536
100000.0424759936
99999.93173251681
100000.1097373956
99999.82328115354
100000.285014646
99999.53930390904
100000.74643308853
99998.7877349172
100001.97113549929
99996.80054856316
100005.13827262471
99991.9740241076
100011.57405455099
99986.63218530647
100001.55592363678
100064.31814508964
99666.09810305265
101277.5624141624
95517.34179752087
115523.67012406547
477925.7346223641
925461.0970385431
1.0511648879278672e6
1.0503663532260328e6
1.0632649839163178e6
1.0726911051550636e6
1.0821130573556286e6
1.0908058863021615e6
1.0989705044886658e6
1.1065924110428442e6
1.1136618919541256e6
1.1202414603643287e6
1.1262228169432634e6
1.1317926496149278e6
1.1366007192760315e6
1.1412431312416408e6
1.144606486951154e6
1.1486794189162878e6
1.1497243061164182e6
1.1547338940082223e6
1.1501772508484167e6
1.1626714421583083e6
100000.00258910305
99999.99579914393
100000.00670737591
99999.98918235989
100000.01730698536
99999.97220828122
100000.044445142
99999.92888698587
100000.11350286036
99999.8189857738
100000.28824839971
99999.54119643851
100000.73068304802
99998.83273735744
100001.87771895522
99996.93624456743
100005.11458269949
99991.12608809638
100016.11927198555
99968.68528556442
100063.52039078948
99861.52289057187
100297.54086619866
99323.29150944241
101385.84361649588
97125.03747841471
418662.4374577252
883182.4316211138
1.0451880640427384e6
1.0453188184217092e6
1.0575092059540194e6
1.0666614364632026e6
1.0756596736823888e6
1.083927559042479e6
1.0916247083121827e6
1.0987453907193714e6
1.1052743803955764e6
1.1112691376615276e6
1.1166161801430515e6
1.1214882485895022e6
1.1255238872741372e6
1.12929576915599e6
1.1316657029433348e6
1.1346356998874897e6
1.1343784662258034e6
1.1382741641028277e6
1.1320746829921342e6
1.1451707431539483e6
100000.00261360488
99999.99574632224
100000.00681927027
99999.9889687699
100000.01769410023
99999.97153816145
100000.04554662085
99999.927172785
100000.11596652483
99999.81586933133
100000.2912002383
99999.54095125773
100000.7220903078
99998.86248675018
100001.80732158227
99997.06095343696
100004.99979264413
99990.79518272853
100018.72271789983
99957.16175871549
100106.19645651804
99716.02515428756
100773.01923197406
97839.21091958317
106186.75226567224
83645.85221897061
356626.01695980196
831073.604126232
1.0358317588371014e6
1.0402241587670997e6
1.0511666100604048e6
1.0600813472916933e6
1.0685918859750994e6
1.0763779396686922e6
1.0835391922424445e6
1.0900821968684827e6
1.0959873978451253e6
1.1013120250486573e6
1.1059483144059423e6
1.110073711720358e6
1.1133525449960665e6
1.1163770565377192e6
1.118073259980842e6
1.1204788037620718e6
1.1198304241128499e6
1.123586875673039e6
1.1170494539425075e6
1.1312669604894698e6
100000.0025746963
99999.99577792984
100000.00680528529
99999.98891627672
100000.01789674626
99999.9710110367
100000.0467320782
99999.92471866474
100000.12081751943
99999.80664339715
100000.30828718923
99999.51006660593
100000.77690595826
99998.76649793526
100001.97528834968
99996.76085546368
100005.57104144021
99989.58171673868
100021.71598278626
99948.82714135612
100131.69048423594
99636.46377464327
101031.89958548163
97043.3841645713
108911.85344268788
76438.97462020289
294088.0848203314
768262.9771178903
1.0213341083159882e6
1.0351678039094842e6
1.044252896642053e6
1.052959725020319e6
1.0609171445773866e6
1.068153945052094e6
1.0746948702522013e6
1.0805547470520998e6
1.0856999163851077e6
1.0901719841738215e6
1.0938407552532612e6
1.0968467240733497e6
1.0988002936396864e6
1.1002200445959324e6
1.0998961688455339e6
1.0998195817541096e6
1.0958780080372668e6
1.0962539068686443e6
1.084695410496214e6
1.0988283249061326e6
100000.00247133183
99999.9959007623
100000.00665380586
99999.98905259004
100000.0178636016
99999.97072407707
100000.04783219479
99999.92180230067
100000.12764277324
99999.79181222357
100000.33918430038
99999.44774225622
100000.89968221987
99998.52969680127
100002.4233057579
99995.93082155679
100007.07516239345
99986.93788604283
100026.219980027
99941.59223600313
100142.91509411327
99621.27852462411
101055.62288950909
97013.53321790857
109031.80030111737
75963.25166737557
233748.2789091273
694550.4612731709
999488.0792017506
1.0301114985738507e6
1.0368414139432918e6
1.0453330208108381e6
1.0526825858259252e6
1.059305631522047e6
1.0651514852659078e6
1.0702408989324737e6
1.0745275536433358e6
1.0780415475679731e6
1.0806456228707107e6
1.0824707085306672e6
1.0831470195130422e6
1.0832058169568626e6
1.0815635277324736e6
1.080210706568929e6
1.075474661921125e6
1.074958780059019e6
1.0634078894277206e6
1.0767782832367318e6
100000.00228917346
99999.99615705082
100000.00628830734
99999.98954109904
100000.01727533236
99999.97131074492
100000.04761330588
99999.92080873853
100000.13186799847
99999.78006989043
100000.3674980916
99999.3845780863
100001.033929337
99998.25482777542
100002.9680394403
99994.88865211263
100008.98402775066
99983.67463194615
100031.15696403528
99936.30280795484
100141.00875486324
99660.72723789804
100878.92392180738
97631.26647731935
106934.37490121047
81352.44704756106
178597.34739325749
610669.2377777129
967688.5965545996
1.024704054675769e6
1.0290591873882405e6
1.0372355093134966e6
1.0439323913542099e6
1.0498720207577453e6
1.0549417811133652e6
1.0591563233252e6
1.062445065307686e6
1.0648052339504329e6
1.0660504236955128e6
1.0662322230781983e6
1.0648488601571885e6
1.0622239699239747e6
1.0568765051029068e6
1.0503675774439832e6
1.0376847828015888e6
1.0270789154952209e6
997662.4144141976
1.0042501950690686e6
100000.00201327202
99999.99659464485
100000.00561832711
99999.99058035768
100000.01572934695
99999.97359309015
100000.04442215821
99999.92503708121
100000.12695254161
99999.78429472128
100000.368019458
99999.36960068595
100001.08500880472
99998.12291065518
100003.2676430999
99994.26815732004
100010.15553910342
99981.75187478487
100033.45004628556
99936.83303705933
100124.29928988806
99741.199399544
100577.4578062541
98621.63967947983
103626.90999727114
90474.76069422209
132071.6627731402
518595.8284978492
922993.233189571
1.0179710851772266e6
1.0210775914995733e6
1.0287011607896525e6
1.0347220044842131e6
1.0399162403976703e6
1.0441442006959285e6
1.0474040971804386e6
1.049601560606859e6
1.0507013020892362e6
1.050482130470686e6
1.0489404424774332e6
1.0455489010555145e6
1.0405542509588738e6
1.0326239548290505e6
1.0231258060751328e6
1.0083456058303391e6
993486.9527428458
965327.3599475116
932162.258140162
100000.00164369553
99999.99722873211
100000.00460719063
99999.99226718623
100000.01300122633
99999.9780724931
100000.03716936772
99999.93679909443
100000.10805540095
99999.81448833233
100000.32027123442
99999.4443282738
100000.96945312279
99998.29996290519
100002.99599997186
99994.69824817193
100009.40928016472
99983.28582405378
100029.61478656263
99947.90161354373
100090.12536217534
99848.34743027168
100239.83700065747
99658.40405257
100347.79529534312
100103.99628085806
97959.07819347929
421990.5892143589
862418.2760980522
1.0079240604363006e6
1.0130507760034628e6
1.0197522176397407e6
1.0251019096890778e6
1.0295011189759175e6
1.0328324005256669e6
1.0350653239402259e6
1.0360743187766788e6
1.0357765728166254e6
1.0338807751294823e6
1.0302648099608276e6
1.024216243183157e6
1.0155882229912676e6
1.0023862892879983e6
984372.5701605481
954794.5276910794
911804.3557650228
826006.0319145662
674186.5094477524
100000.00120610905
99999.99801459006
100000.00332241236
99999.99449196673
100000.00925290328
99999.98451107279
100000.02616822332
99999.95574121756
100000.07539547831
99999.87106860738
100000.22190917195
99999.61611484765
100000.66795365176
99998.832417215
100002.04808901665
99996.40503646024
100006.28472860181
99989.14890890427
100018.20672885347
99971.23500486415
100039.21908492173
99967.54573292357
99939.17420766661
100462.87393515797
98084.13295542453
106827.56855606961
79224.01755830017
326342.36678555876
783898.9541753489
991386.6935498482
1.0050418917452298e6
1.0104264207023522e6
1.0151322937412855e6
1.0187086842709688e6
1.0211101739688326e6
1.0222734546287643e6
1.0220437783496764e6
1.0202878639252153e6
1.0166541739636164e6
1.0109110684020784e6
1.0022078879167509e6
990131.9316674065
972392.8036043203
948071.7150243351
910179.3881455204
855376.1049206707
759853.1810597731
603747.1277440039
100000.00075112686
99999.99884743427
100000.0019392442
99999.99692743004
100000.00506574845
99999.99184838994
100000.0133370042
99999.97837184161
100000.0353276904
99999.94244894439
100000.09406576931
99999.84640710895
100000.25078755459
99999.59228763706
100000.65657645676
99998.96613306883
100001.54875947199
99997.94435873565
100001.80721406772
100001.93339597291
99981.51008994789
100076.82417391065
99730.50924081428
100872.5445145743
97275.03680239446
108620.32146656909
75797.54223459706
238069.95926145843
687552.0978694465
964293.6786536296
996937.3006543525
1.0008413038829049e6
1.0049021891085058e6
1.0076426718722619e6
1.0090977907344656e6
1.0091751319410695e6
1.007691515159404e6
1.0044727726635393e6
999112.1873364601
991296.557405892
980078.778853762
964898.4002662867
943356.9806640388
914406.7163821683
871442.1103764175
812281.106001124
717780.2294039689
584673.9593706958
100000.00034114311
99999.99959298251
100000.00068920168
99999.99912919721
100000.00125675762
99999.99854654045
100000.00155831092
99999.99925249652
99999.9981379193
100000.00910878461
99999.97389382307
100000.0643290008
99999.85341191522
100000.32050575507
99999.31671246674
100001.43722493008
99996.99233583937
100006.30898317884
99986.6265191132
100028.85192665453
99935.99835949282
100146.66602790407
99649.10935111808
100874.42278726479
97738.0256135115
106251.97674855431
83579.36825956036
163511.36396203254
576090.2984308285
921906.1045175039
988053.3517765835
991205.2137159543
994522.576955299
996420.36961831
996927.3376322647
995929.2884787462
993217.8821230069
988589.7922292429
981600.68058163
971892.4769413798
958475.9461066923
940765.898529256
916396.7005419575
884568.0799796453
839223.5589573688
780126.9191840116
691320.5744881348
580351.1512768026
100000.00003015014
100000.00013568033
99999.99977541454
100000.00070547385
99999.99855585712
100000.00321854427
99999.99346267739
100000.01336415211
99999.97343582535
100000.05257973065
99999.89701778689
100000.2009635055
99999.60948615205
100000.75754426492
99998.53230044535
100002.84326783821
99994.48968686812
100010.68881012457
99979.23867321064
100040.37246176109
99921.36279153872
100153.18451224119
99701.18848895337
100581.43878906398
98870.90232941377
102214.5712107065
95861.99787237754
109237.0661085553
455299.16390676855
858821.2261439579
976155.6685114877
981652.032963682
984068.1816744672
985137.6035361538
984717.8100756125
982682.6928809547
978807.0278839341
972868.35874231
964406.4103844869
953051.7649085865
937822.2445887399
918188.2717651381
891922.1705144392
858587.6275378895
812834.3448658912
755886.6322080463
674853.5984196416
580942.7922812932
99999.99984567278
100000.00042114606
99999.99929621119
100000.00147059794
99999.99730871052
100000.00521321506
99999.99027713113
100000.01837997886
99999.96564745407
100000.06439741931
99999.87968231335
100000.2249940493
99999.57953507059
100000.78618660012
99998.5300496434
100002.74775795192
99994.87084479348
100009.54212056001
99982.3707476573
100032.13206777177
99942.87766595304
100096.63748335747
99852.35313680071
100168.36571439564
100019.41247827673
98902.9737291379
105443.42900551156
80519.61604556147
334915.70520508994
770802.4912984716
956762.1836288816
972037.7776198637
973562.8595991754
973862.3256684393