# vtk DataFile Version 2.0
JuliaCFD
ASCII
DATASET UNSTRUCTURED_GRID

POINTS 32898 float
0.0 0.0 -0.05
0.0125 0.0 -0.05
0.025 0.0 -0.05
0.0375 0.0 -0.05
0.05 0.0 -0.05
0.0625 0.0 -0.05
0.075 0.0 -0.05
0.0875 0.0 -0.05
0.1 0.0 -0.05
0.1125 0.0 -0.05
0.125 0.0 -0.05
0.1375 0.0 -0.05
0.15 0.0 -0.05
0.1625 0.0 -0.05
0.175 0.0 -0.05
0.1875 0.0 -0.05
0.2 0.0 -0.05
0.2125 0.0 -0.05
0.225 0.0 -0.05
0.2375 0.0 -0.05
0.25 0.0 -0.05
0.2625 0.0 -0.05
0.275 0.0 -0.05
0.2875 0.0 -0.05
0.3 0.0 -0.05
0.3125 0.0 -0.05
0.325 0.0 -0.05
0.3375 0.0 -0.05
0.35 0.0 -0.05
0.3625 0.0 -0.05
0.375 0.0 -0.05
0.3875 0.0 -0.05
0.4 0.0 -0.05
0.4125 0.0 -0.05
0.425 0.0 -0.05
0.4375 0.0 -0.05
0.45 0.0 -0.05
0.4625 0.0 -0.05
0.475 0.0 -0.05
0.4875 0.0 -0.05
0.5 0.0 -0.05
0.5125 0.0 -0.05
0.525 0.0 -0.05
0.5375 0.0 -0.05
0.55 0.0 -0.05
0.5625 0.0 -0.05
0.575 0.0 -0.05
0.5875 0.0 -0.05
0.6 0.0 -0.05
0.0 0.0125 -0.05
0.0125 0.0125 -0.05
0.025 0.0125 -0.05
0.0375 0.0125 -0.05
0.05 0.0125 -0.05
0.0625 0.0125 -0.05
0.075 0.0125 -0.05
0.0875 0.0125 -0.05
0.1 0.0125 -0.05
0.1125 0.0125 -0.05
0.125 0.0125 -0.05
0.1375 0.0125 -0.05
0.15 0.0125 -0.05
0.1625 0.0125 -0.05
0.175 0.0125 -0.05
0.1875 0.0125 -0.05
0.2 0.0125 -0.05
0.2125 0.0125 -0.05
0.225 0.0125 -0.05
0.2375 0.0125 -0.05
0.25 0.0125 -0.05
0.2625 0.0125 -0.05
0.275 0.0125 -0.05
0.2875 0.0125 -0.05
0.3 0.0125 -0.05
0.3125 0.0125 -0.05
0.325 0.0125 -0.05
0.3375 0.0125 -0.05
0.35 0.0125 -0.05
0.3625 0.0125 -0.05
0.375 0.0125 -0.05
0.3875 0.0125 -0.05
0.4 0.0125 -0.05
0.4125 0.0125 -0.05
0.425 0.0125 -0.05
0.4375 0.0125 -0.05
0.45 0.0125 -0.05
0.4625 0.0125 -0.05
0.475 0.0125 -0.05
0.4875 0.0125 -0.05
0.5 0.0125 -0.05
0.5125 0.0125 -0.05
0.525 0.0125 -0.05
0.5375 0.0125 -0.05
0.55 0.0125 -0.05
0.5625 0.0125 -0.05
0.575 0.0125 -0.05
0.5875 0.0125 -0.05
0.6 0.0125 -0.05
0.0 0.025 -0.05
0.0125 0.025 -0.05
0.025 0.025 -0.05
0.0375 0.025 -0.05
0.05 0.025 -0.05
0.0625 0.025 -0.05
0.075 0.025 -0.05
0.0875 0.025 -0.05
0.1 0.025 -0.05
0.1125 0.025 -0.05
0.125 0.025 -0.05
0.1375 0.025 -0.05
0.15 0.025 -0.05
0.1625 0.025 -0.05
0.175 0.025 -0.05
0.1875 0.025 -0.05
0.2 0.025 -0.05
0.2125 0.025 -0.05
0.225 0.025 -0.05
0.2375 0.025 -0.05
0.25 0.025 -0.05
0.2625 0.025 -0.05
0.275 0.025 -0.05
0.2875 0.025 -0.05
0.3 0.025 -0.05
0.3125 0.025 -0.05
0.325 0.025 -0.05
0.3375 0.025 -0.05
0.35 0.025 -0.05
0.3625 0.025 -0.05
0.375 0.025 -0.05
0.3875 0.025 -0.05
0.4 0.025 -0.05
0.4125 0.025 -0.05
0.425 0.025 -0.05
0.4375 0.025 -0.05
0.45 0.025 -0.05
0.4625 0.025 -0.05
0.475 0.025 -0.05
0.4875 0.025 -0.05
0.5 0.025 -0.05
0.5125 0.025 -0.05
0.525 0.025 -0.05
0.5375 0.025 -0.05
0.55 0.025 -0.05
0.5625 0.025 -0.05
0.575 0.025 -0.05
0.5875 0.025 -0.05
0.6 0.025 -0.05
0.0 0.0375 -0.05
0.0125 0.0375 -0.05
0.025 0.0375 -0.05
0.0375 0.0375 -0.05
0.05 0.0375 -0.05
0.0625 0.0375 -0.05
0.075 0.0375 -0.05
0.0875 0.0375 -0.05
0.1 0.0375 -0.05
0.1125 0.0375 -0.05
0.125 0.0375 -0.05
0.1375 0.0375 -0.05
0.15 0.0375 -0.05
0.1625 0.0375 -0.05
0.175 0.0375 -0.05
0.1875 0.0375 -0.05
0.2 0.0375 -0.05
0.2125 0.0375 -0.05
0.225 0.0375 -0.05
0.2375 0.0375 -0.05
0.25 0.0375 -0.05
0.2625 0.0375 -0.05
0.275 0.0375 -0.05
0.2875 0.0375 -0.05
0.3 0.0375 -0.05
0.3125 0.0375 -0.05
0.325 0.0375 -0.05
0.3375 0.0375 -0.05
0.35 0.0375 -0.05
0.3625 0.0375 -0.05
0.375 0.0375 -0.05
0.3875 0.0375 -0.05
0.4 0.0375 -0.05
0.4125 0.0375 -0.05
0.425 0.0375 -0.05
0.4375 0.0375 -0.05
0.45 0.0375 -0.05
0.4625 0.0375 -0.05
0.475 0.0375 -0.05
0.4875 0.0375 -0.05
0.5 0.0375 -0.05
0.5125 0.0375 -0.05
0.525 0.0375 -0.05
0.5375 0.0375 -0.05
0.55 0.0375 -0.05
0.5625 0.0375 -0.05
0.575 0.0375 -0.05
0.5875 0.0375 -0.05
0.6 0.0375 -0.05
0.0 0.05 -0.05
0.0125 0.05 -0.05
0.025 0.05 -0.05
0.0375 0.05 -0.05
0.05 0.05 -0.05
0.0625 0.05 -0.05
0.075 0.05 -0.05
0.0875 0.05 -0.05
0.1 0.05 -0.05
0.1125 0.05 -0.05
0.125 0.05 -0.05
0.1375 0.05 -0.05
0.15 0.05 -0.05
0.1625 0.05 -0.05
0.175 0.05 -0.05
0.1875 0.05 -0.05
0.2 0.05 -0.05
0.2125 0.05 -0.05
0.225 0.05 -0.05
0.2375 0.05 -0.05
0.25 0.05 -0.05
0.2625 0.05 -0.05
0.275 0.05 -0.05
0.2875 0.05 -0.05
0.3 0.05 -0.05
0.3125 0.05 -0.05
0.325 0.05 -0.05
0.3375 0.05 -0.05
0.35 0.05 -0.05
0.3625 0.05 -0.05
0.375 0.05 -0.05
0.3875 0.05 -0.05
0.4 0.05 -0.05
0.4125 0.05 -0.05
0.425 0.05 -0.05
0.4375 0.05 -0.05
0.45 0.05 -0.05
0.4625 0.05 -0.05
0.475 0.05 -0.05
0.4875 0.05 -0.05
0.5 0.05 -0.05
0.5125 0.05 -0.05
0.525 0.05 -0.05
0.5375 0.05 -0.05
0.55 0.05 -0.05
0.5625 0.05 -0.05
0.575 0.05 -0.05
0.5875 0.05 -0.05
0.6 0.05 -0.05
0.0 0.0625 -0.05
0.0125 0.0625 -0.05
0.025 0.0625 -0.05
0.0375 0.0625 -0.05
0.05 0.0625 -0.05
0.0625 0.0625 -0.05
0.075 0.0625 -0.05
0.0875 0.0625 -0.05
0.1 0.0625 -0.05
0.1125 0.0625 -0.05
0.125 0.0625 -0.05
0.1375 0.0625 -0.05
0.15 0.0625 -0.05
0.1625 0.0625 -0.05
0.175 0.0625 -0.05
0.1875 0.0625 -0.05
0.2 0.0625 -0.05
0.2125 0.0625 -0.05
0.225 0.0625 -0.05
0.2375 0.0625 -0.05
0.25 0.0625 -0.05
0.2625 0.0625 -0.05
0.275 0.0625 -0.05
0.2875 0.0625 -0.05
0.3 0.0625 -0.05
0.3125 0.0625 -0.05
0.325 0.0625 -0.05
0.3375 0.0625 -0.05
0.35 0.0625 -0.05
0.3625 0.0625 -0.05
0.375 0.0625 -0.05
0.3875 0.0625 -0.05
0.4 0.0625 -0.05
0.4125 0.0625 -0.05
0.425 0.0625 -0.05
0.4375 0.0625 -0.05
0.45 0.0625 -0.05
0.4625 0.0625 -0.05
0.475 0.0625 -0.05
0.4875 0.0625 -0.05
0.5 0.0625 -0.05
0.5125 0.0625 -0.05
0.525 0.0625 -0.05
0.5375 0.0625 -0.05
0.55 0.0625 -0.05
0.5625 0.0625 -0.05
0.575 0.0625 -0.05
0.5875 0.0625 -0.05
0.6 0.0625 -0.05
0.0 0.075 -0.05
0.0125 0.075 -0.05
0.025 0.075 -0.05
0.0375 0.075 -0.05
0.05 0.075 -0.05
0.0625 0.075 -0.05
0.075 0.075 -0.05
0.0875 0.075 -0.05
0.1 0.075 -0.05
0.1125 0.075 -0.05
0.125 0.075 -0.05
0.1375 0.075 -0.05
0.15 0.075 -0.05
0.1625 0.075 -0.05
0.175 0.075 -0.05
0.1875 0.075 -0.05
0.2 0.075 -0.05
0.2125 0.075 -0.05
0.225 0.075 -0.05
0.2375 0.075 -0.05
0.25 0.075 -0.05
0.2625 0.075 -0.05
0.275 0.075 -0.05
0.2875 0.075 -0.05
0.3 0.075 -0.05
0.3125 0.075 -0.05
0.325 0.075 -0.05
0.3375 0.075 -0.05
0.35 0.075 -0.05
0.3625 0.075 -0.05
0.375 0.075 -0.05
0.3875 0.075 -0.05
0.4 0.075 -0.05
0.4125 0.075 -0.05
0.425 0.075 -0.05
0.4375 0.075 -0.05
0.45 0.075 -0.05
0.4625 0.075 -0.05
0.475 0.075 -0.05
0.4875 0.075 -0.05
0.5 0.075 -0.05
0.5125 0.075 -0.05
0.525 0.075 -0.05
0.5375 0.075 -0.05
0.55 0.075 -0.05
0.5625 0.075 -0.05
0.575 0.075 -0.05
0.5875 0.075 -0.05
0.6 0.075 -0.05
0.0 0.0875 -0.05
0.0125 0.0875 -0.05
0.025 0.0875 -0.05
0.0375 0.0875 -0.05
0.05 0.0875 -0.05
0.0625 0.0875 -0.05
0.075 0.0875 -0.05
0.0875 0.0875 -0.05
0.1 0.0875 -0.05
0.1125 0.0875 -0.05
0.125 0.0875 -0.05
0.1375 0.0875 -0.05
0.15 0.0875 -0.05
0.1625 0.0875 -0.05
0.175 0.0875 -0.05
0.1875 0.0875 -0.05
0.2 0.0875 -0.05
0.2125 0.0875 -0.05
0.225 0.0875 -0.05
0.2375 0.0875 -0.05
0.25 0.0875 -0.05
0.2625 0.0875 -0.05
0.275 0.0875 -0.05
0.2875 0.0875 -0.05
0.3 0.0875 -0.05
0.3125 0.0875 -0.05
0.325 0.0875 -0.05
0.3375 0.0875 -0.05
0.35 0.0875 -0.05
0.3625 0.0875 -0.05
0.375 0.0875 -0.05
0.3875 0.0875 -0.05
0.4 0.0875 -0.05
0.4125 0.0875 -0.05
0.425 0.0875 -0.05
0.4375 0.0875 -0.05
0.45 0.0875 -0.05
0.4625 0.0875 -0.05
0.475 0.0875 -0.05
0.4875 0.0875 -0.05
0.5 0.0875 -0.05
0.5125 0.0875 -0.05
0.525 0.0875 -0.05
0.5375 0.0875 -0.05
0.55 0.0875 -0.05
0.5625 0.0875 -0.05
0.575 0.0875 -0.05
0.5875 0.0875 -0.05
0.6 0.0875 -0.05
0.0 0.1 -0.05
0.0125 0.1 -0.05
0.025 0.1 -0.05
0.0375 0.1 -0.05
0.05 0.1 -0.05
0.0625 0.1 -0.05
0.075 0.1 -0.05
0.0875 0.1 -0.05
0.1 0.1 -0.05
0.1125 0.1 -0.05
0.125 0.1 -0.05
0.1375 0.1 -0.05
0.15 0.1 -0.05
0.1625 0.1 -0.05
0.175 0.1 -0.05
0.1875 0.1 -0.05
0.2 0.1 -0.05
0.2125 0.1 -0.05
0.225 0.1 -0.05
0.2375 0.1 -0.05
0.25 0.1 -0.05
0.2625 0.1 -0.05
0.275 0.1 -0.05
0.2875 0.1 -0.05
0.3 0.1 -0.05
0.3125 0.1 -0.05
0.325 0.1 -0.05
0.3375 0.1 -0.05
0.35 0.1 -0.05
0.3625 0.1 -0.05
0.375 0.1 -0.05
0.3875 0.1 -0.05
0.4 0.1 -0.05
0.4125 0.1 -0.05
0.425 0.1 -0.05
0.4375 0.1 -0.05
0.45 0.1 -0.05
0.4625 0.1 -0.05
0.475 0.1 -0.05
0.4875 0.1 -0.05
0.5 0.1 -0.05
0.5125 0.1 -0.05
0.525 0.1 -0.05
0.5375 0.1 -0.05
0.55 0.1 -0.05
0.5625 0.1 -0.05
0.575 0.1 -0.05
0.5875 0.1 -0.05
0.6 0.1 -0.05
0.0 0.1125 -0.05
0.0125 0.1125 -0.05
0.025 0.1125 -0.05
0.0375 0.1125 -0.05
0.05 0.1125 -0.05
0.0625 0.1125 -0.05
0.075 0.1125 -0.05
0.0875 0.1125 -0.05
0.1 0.1125 -0.05
0.1125 0.1125 -0.05
0.125 0.1125 -0.05
0.1375 0.1125 -0.05
0.15 0.1125 -0.05
0.1625 0.1125 -0.05
0.175 0.1125 -0.05
0.1875 0.1125 -0.05
0.2 0.1125 -0.05
0.2125 0.1125 -0.05
0.225 0.1125 -0.05
0.2375 0.1125 -0.05
0.25 0.1125 -0.05
0.2625 0.1125 -0.05
0.275 0.1125 -0.05
0.2875 0.1125 -0.05
0.3 0.1125 -0.05
0.3125 0.1125 -0.05
0.325 0.1125 -0.05
0.3375 0.1125 -0.05
0.35 0.1125 -0.05
0.3625 0.1125 -0.05
0.375 0.1125 -0.05
0.3875 0.1125 -0.05
0.4 0.1125 -0.05
0.4125 0.1125 -0.05
0.425 0.1125 -0.05
0.4375 0.1125 -0.05
0.45 0.1125 -0.05
0.4625 0.1125 -0.05
0.475 0.1125 -0.05
0.4875 0.1125 -0.05
0.5 0.1125 -0.05
0.5125 0.1125 -0.05
0.525 0.1125 -0.05
0.5375 0.1125 -0.05
0.55 0.1125 -0.05
0.5625 0.1125 -0.05
0.575 0.1125 -0.05
0.5875 0.1125 -0.05
0.6 0.1125 -0.05
0.0 0.125 -0.05
0.0125 0.125 -0.05
0.025 0.125 -0.05
0.0375 0.125 -0.05
0.05 0.125 -0.05
0.0625 0.125 -0.05
0.075 0.125 -0.05
0.0875 0.125 -0.05
0.1 0.125 -0.05
0.1125 0.125 -0.05
0.125 0.125 -0.05
0.1375 0.125 -0.05
0.15 0.125 -0.05
0.1625 0.125 -0.05
0.175 0.125 -0.05
0.1875 0.125 -0.05
0.2 0.125 -0.05
0.2125 0.125 -0.05
0.225 0.125 -0.05
0.2375 0.125 -0.05
0.25 0.125 -0.05
0.2625 0.125 -0.05
0.275 0.125 -0.05
0.2875 0.125 -0.05
0.3 0.125 -0.05
0.3125 0.125 -0.05
0.325 0.125 -0.05
0.3375 0.125 -0.05
0.35 0.125 -0.05
0.3625 0.125 -0.05
0.375 0.125 -0.05
0.3875 0.125 -0.05
0.4 0.125 -0.05
0.4125 0.125 -0.05
0.425 0.125 -0.05
0.4375 0.125 -0.05
0.45 0.125 -0.05
0.4625 0.125 -0.05
0.475 0.125 -0.05
0.4875 0.125 -0.05
0.5 0.125 -0.05
0.5125 0.125 -0.05
0.525 0.125 -0.05
0.5375 0.125 -0.05
0.55 0.125 -0.05
0.5625 0.125 -0.05
0.575 0.125 -0.05
0.5875 0.125 -0.05
0.6 0.125 -0.05
0.0 0.1375 -0.05
0.0125 0.1375 -0.05
0.025 0.1375 -0.05
0.0375 0.1375 -0.05
0.05 0.1375 -0.05
0.0625 0.1375 -0.05
0.075 0.1375 -0.05
0.0875 0.1375 -0.05
[...]
CELL_DATA 16128
SCALARS P float 1
LOOKUP_TABLE default
100000.00143186674
99999.99698945259
100000.0053200617
99999.98999604491
100000.01785351906
99999.96783481613
100000.05684384545
99999.89982779838
100000.17484846119
99999.69633214282
100000.52410516255
99999.0997741058
100001.53891499544
99997.37989998265
100004.44434436814
99992.48396822442
100012.67695468638
99978.65548136446
100035.85740973224
99939.89124738553
100099.92270697652
99836.723515128
100252.66170484739
99660.1554880574
100236.12810071363
100805.05828198693
94310.94656012738
125857.32207377238
516885.6742639334
991582.3158846671
1.113921147328892e6
1.1011855670208398e6
1.1207283503747236e6
1.1300602386908887e6
1.141590340477386e6
1.1517076715959096e6
1.1613958440774234e6
1.1704428960975525e6
1.1787720270462085e6
1.1865913897083504e6
1.1934706183043376e6
1.200087972078063e6
1.205178341354832e6
1.2108388089024245e6
1.213291721809639e6
1.2189862249735687e6
1.216532979067943e6
1.2256260738508312e6
100000.00141377005
99999.99702498828
100000.00526915627
99999.99007994153
100000.01772545675
99999.96803436476
100000.05652958062
99999.90032926001
100000.1740029587
99999.69782453404
100000.52128376866
99999.10536377852
100001.5274431265
99997.40371445035
100004.3951562517
99992.58361123296
100012.48162729993
99979.02090051155
100035.22060164179
99940.87653461186
100098.75319871819
99836.94918413574
100257.47903246764
99637.4623323575
100312.08557749921
100580.45143196554
94900.00239423651
124148.59554424499
513021.2412328767
991821.0583803587
1.1189917079309882e6
1.1067982398798072e6
1.126892181292494e6
1.1364664701180023e6
1.1481261177444658e6
1.1583394861742675e6
1.1681016068563296e6
1.1772210826064814e6
1.1856202517418324e6
1.1935092150130768e6
1.2004524052335187e6
1.2071265106671427e6
1.2122541134657012e6
1.2179392201116502e6
1.2203726544046046e6
1.2260616489552716e6
1.2234874724401908e6
1.2326737364515036e6
100000.00129245587
99999.99725781912
100000.00487150715
99999.99079556495
100000.01648223594
99999.97021644238
100000.05274599364
99999.90688229271
100000.16272635816
99999.71714421967
100000.48837849053
99999.16105967009
100001.43386280171
99997.55956917779
100004.13838820314
99993.00071393244
100011.81706419293
99980.04951544758
100033.70417171567
99942.90554274182
100096.6472646683
99837.05031628809
100266.55279211736
99596.09813640993
100455.28211894367
100122.69077790483
96276.17100707996
119341.10812722569
499148.9456359444
980584.2200881619
1.1151787538647759e6
1.1023203108555737e6
1.121939171907044e6
1.1313539196918553e6
1.1427679941409137e6
1.1528156576065207e6
1.162399960934897e6
1.1713545316549034e6
1.179591392053167e6
1.1873229242097754e6
1.1941205683149525e6
1.2006576631173587e6
1.2056744284569293e6
1.2112636782167605e6
1.2136381338839498e6
1.2193030243255987e6
1.2166685820570777e6
1.2260293729686579e6
100000.00112139528
99999.99758724273
100000.00430984507
99999.99180581023
100000.01472936918
99999.97328853453
100000.04742787116
99999.91607714396
100000.14692997628
99999.74417150613
100000.44238006992
99999.23894649063
100001.30274282492
99997.77892610469
100003.77416429829
99993.60006416526
100010.84317927618
99981.60312787257
100031.30508575929
99946.38399009351
100092.31420699033
99840.02347332508
100274.02942866381
99546.39590891727
100648.61133766898
99471.41414636686
98323.77489491543
112531.49419067889
479392.08469944494
967187.9747874863
1.114892296901848e6
1.1019748846212372e6
1.1215633083841263e6
1.13122123634239e6
1.1426334777160275e6
1.1527328252421904e6
1.1623220515481597e6
1.17128839531533e6
1.1795367990751367e6
1.1872865342407553e6
1.1941137656907847e6
1.2006859960053847e6
1.2057497649882617e6
1.2113870487633e6
1.213801122830098e6
1.2195339172963272e6
1.2168266804621574e6
1.2264461174970437e6
100000.00091463627
99999.99798511018
100000.00363152387
99999.99302504546
100000.01261557502
99999.97699011936
100000.04102571872
99999.92713890556
100000.1279335661
99999.77667943409
100000.38700000157
99999.3329125769
100001.1439740753
99998.04603281752
100003.32691076591
99994.34476914805
100009.6128714343
99983.61124652853
100028.10074812631
99951.27319000177
100085.59900986636
99846.68932476513
100277.1063067913
99496.93946052252
100868.36577586191
98692.83676484769
100915.02776232184
104204.52341438767
452544.3698523636
946946.36926726
1.1120984446089952e6
1.0990910964072784e6
1.1179699974886351e6
1.1276269847737246e6
1.1387285327708449e6
1.1486478497612868e6
1.158016989578203e6
1.1667824961469427e6
1.174831998941891e6
1.182388832948704e6
1.1890358396081456e6
1.1954332851920966e6
1.200344377099075e6
1.2058391751980886e6
1.2081299980296546e6
1.2137998674653072e6
1.2109178362771368e6
1.220810342592731e6
100000.00068862
99999.99841902805
100000.00289124782
99999.9943545178
100000.01031268576
99999.98101927669
100000.03406472807
99999.93915627734
100000.10731030842
99999.81196590178
100000.32685931835
99999.4351049743
100000.97084534566
99998.33859556886
100002.83380535415
99995.17377138553
100008.2247588199
99985.92090148783
100024.31264045989
99957.30714933458
100076.65086733906
99857.6624084677
100272.3986251353
99460.02152312113
101076.91746040761
97896.5363453309
103769.07183501264
95326.79407674068
419690.1691708871
920775.1072888069
1.1088531996095316e6
1.0968537312602925e6
1.1148692447789435e6
1.124763109408088e6
1.1356413591369097e6
1.1454845200418606e6
1.1547171879916962e6
1.1633634785930903e6
1.1712962340102044e6
1.1787471478509451e6
1.18530875311858e6
1.1916352337385379e6
1.1965045175993757e6
1.2019757122961113e6
1.2042489584818266e6
1.2099648344434923e6
1.2069583484889972e6
1.2172373202560612e6
100000.00045908842
99999.9988587273
100000.00214026848
99999.99570223234
100000.00798058459
99999.98509474406
100000.02703573395
99999.9512709611
100000.0865580145
99999.84741483672
100000.26652480656
99999.53753839558
100000.79730697075
99998.63219623445
100002.33743105322
99996.01294394815
100006.80624700431
99988.31699483196
100020.28833257829
99963.97092729152
100066.07814886598
99872.77640449739
100257.58160095569
99447.34345280513
101232.35145557488
97212.41110823979
106495.20215945311
86927.48780887213
381320.4235089308
887177.2694611856
1.103416493035692e6
1.093977949013279e6
1.1104718748653512e6
1.1205696357342359e6
1.1310503677247819e6
1.1406842605460696e6
1.1496417863088048e6
1.1580283956646991e6
1.1656971523994436e6
1.172883683107079e6
1.1791882680900258e6
1.1852562729047977e6
1.189882428277934e6
1.195120037676615e6
1.1971640479744596e6
1.2027483630082018e6
1.1994406078515484e6
1.2101288633256615e6
100000.00023921135
99999.99927989046
100000.00141978747
99999.99699535132
100000.00574487742
99999.9889970285
100000.02032022947
99999.96281557846
100000.0668468658
99999.88096212938
100000.20966075137
99999.6336672571
100000.63515142977
99998.90548612217
100001.87672403645
99996.79123400002
100005.48698947974
99990.56541442758
100016.4411209073
99970.56757966621
100054.9352009865
99890.83452696975
100232.43644028208
99466.78482842328
101296.284892282
96775.07089879442
108593.71201673955
80198.59733724939
338556.90427345247
845549.5369401064
1.0953086966554318e6
1.0911879932231863e6
1.105548567907817e6
1.11599064917678e6
1.1260562780456466e6
1.1354846007393629e6
1.1441651631172597e6
1.1522896141620541e6
1.1596969748645476e6
1.1666309784062013e6
1.1727073683013043e6
1.178569062463462e6
1.183034474983405e6
1.1881523389071443e6
1.1901032279939752e6
1.1957120282029898e6
1.1921984436065794e6
1.2034610543460974e6
100000.00003867506
99999.99966579523
100000.00075778746
99999.99818616822
100000.00368520332
99999.99259132553
100000.01414488119
99999.97340445152
100000.04883739202
99999.91145852115
100000.15829901752
99999.71981910446
100000.49114635817
99999.14568670954
100001.47618812445
99997.46078477429
100004.36095878045
99992.48085569982
100013.13176677309
99976.4115080071
100044.44630400189
99909.90449882309
100198.9354388527
99520.51648824205
101242.49159385344
96698.48623954823
109545.84559420892
76289.31116733553
292771.69431747554
795011.1457976497
1.0830724698792156e6
1.08829800595867e6
1.0997311626024933e6
1.110559279820145e6
1.1201119062438132e6
1.12923821256463e6
1.1375376679532959e6
1.1452776089231507e6
1.1522811595907162e6
1.1587904435790004e6
1.1644268759648595e6
1.1698213939966364e6
1.173804822984325e6
1.1784254677592078e6
1.179849552754652e6
1.1850918194631452e6
1.1809345204420618e6
1.1927584058455164e6
99999.99986392919
100000.00000643954
100000.00017021636
99999.99924985133
100000.00183846492
99999.99582331265
100000.00858467059
99999.98293787813
100000.0326504608
99999.93877233405
100000.11255796943
99999.79591794842
100000.36535955936
99999.35248815229
100001.13751277691
99998.01518000188
100003.4490608829
99994.00321793472
100010.52004037153
99981.10419436163
100035.53044297708
99928.00639863926
100160.67042355385
99603.59776939255
101068.07371380467
97027.37320804008
109053.39552480212
76041.73802910285
245721.87326003192
735082.198161358
1.0651637588082266e6
1.0854106417284461e6
1.0932019937097656e6
1.1044556437016698e6
1.1134625546797346e6
1.122231208322643e6
1.1301007179944364e6
1.1374015115484619e6
1.1439550558675227e6
1.1500099799434633e6
1.1552114873268197e6
1.1601968749213605e6
1.1638380377378135e6
1.168186272958138e6
1.1694123048796693e6
1.1746606535648897e6
1.1702028428304705e6
1.1828938561889518e6
99999.99971928471
100000.00029567869
99999.99966588958
100000.00017476955
100000.00021651236
99999.99868695022
100000.00362051021
99999.9915022955
100000.01803663578
99999.96351411639
100000.07106320806
99999.86488436734
100000.25182687466
99999.53759804399
100000.83843454596
99998.49493263698
100002.6809871816
99995.24484075286
100008.44946934868
99984.79346881605
100028.26675960052
99944.13775988967
100121.31121630601
99705.60550675153
100797.49576718562
97719.09160189352
107183.18258637573
79670.2310276638
199503.9479941261
665700.1355750391
1.0395871433976152e6
1.0823015778793592e6
1.0859926511375548e6
1.0975757414324894e6
1.1059974877762748e6
1.1142988899486798e6
1.1216269576254755e6
1.1283392047179155e6
1.1342507673251657e6
1.139594733000479e6
1.1440074270151055e6
1.1481026772504495e6
1.1507259308721803e6
1.1539440540035416e6
1.1538486775160795e6
1.1579739773693278e6
1.1518595239345313e6
1.1651846902244382e6
99999.9996082739
100000.00052776404
99999.9992529239
100000.00094939905
99999.998831644
100000.00117485615
99999.99923442183
99999.99918908069
100000.00471651558
99999.9864045049
100000.0321091636
99999.93055078
100000.14227206702
99999.71840893281
100000.54342865528
99998.97098798736
100001.91930886584
99996.46329844873
100006.46227640705
99988.22793838212
100021.62820514638
99959.07097621617
100082.66232471453
99814.33971558389
100477.16752686791
98635.6598971668
104373.60016185326
86565.78270232376
156623.1068283738
587529.6350568313
1.004064883537328e6
1.0784811545145628e6
1.0783186095912328e6
1.0899536987629493e6
1.0977965811009204e6
1.1055307563067279e6
1.1122390593019829e6
1.1182732457969687e6
1.1234644582285094e6
1.1280469492483402e6
1.1316878085713298e6
1.135022521082828e6
1.1369627827518578e6
1.1396059087716218e6
1.1391394633219435e6
1.1431493377677351e6
1.1367099489153277e6
1.1511989903928996e6
99999.99953445561
100000.0006951358
99999.99894344163
100000.00155221594
99999.99771815808
100000.0032335387
99999.99550228813
100000.00590559238
99999.99276317103
100000.0075078741
99999.99517652215
99999.99466667151
100000.03190086046
99999.90676740505
100000.2248504994
99999.50490483771
100001.03156195952
99997.93296904642
100004.01378369603
99992.42489769479
100013.91083896506
99975.06327387915
100044.06205164196
99919.78569580764
100162.41634256167
99584.30636461242
101342.89283040613
95146.87659455891
120071.2229920005
502239.44196135306
956034.4003949983
1.072843088021409e6
1.070431851419343e6
1.081565010293187e6
1.088853261834994e6
1.095883272163707e6
1.1018377073369003e6
1.1070036958595386e6
1.111209575636927e6
1.114644910961017e6
1.116927307250307e6
1.1186126248919275e6
1.1184805224044102e6
1.1185808811282027e6
1.1147530890167928e6
1.1153349196680952e6
1.1038059874616994e6
1.1182580255149207e6
99999.99950109943
100000.00078900618
99999.99875347244
100000.00195087184
99999.99693697899
100000.0047491649
99999.99263207769
100000.01128019049
99999.98282612862
100000.02572218268
99999.96206980126
100000.05443358097
99999.92471225574
100000.09785582931
99999.88622674458
100000.10150844936
99999.98623716006
99999.75659081669
100000.8351351344
99998.00499091149
100003.86534863326
99994.17651977415
100003.8517221775
100016.02134791906
99898.95246489898
100368.78423761987
98853.94576346793
103048.44758743152
93163.64701947386
412859.00361884787
892960.976357159
1.0633883525246258e6
1.0626169820770908e6
1.0724233293535446e6
1.0792210910673698e6
1.0854315086862554e6
1.0905356494383696e6
1.0947228516034398e6
1.0978417204066548e6
1.1000647338518677e6
1.1010365295137854e6
1.1013233826300988e6
1.0998466143892186e6
1.0986581473095934e6
1.0940510807207625e6
1.0937688123114852e6
1.0822948118594245e6
1.0959864830660017e6
99999.99950963481
100000.00080305024
99999.99869696001
100000.0021134366
99999.9965564167
100000.00558038586
99999.99091041528
100000.01474446399
99999.9760162981
100000.03890877891
99999.93685166324
100000.10223461341
99999.8347802505
100000.26605509776
99999.57329037113
100000.68093459049
99998.91847116564
100001.71447755814
99997.26299632092
100004.49359879395
99992.09431910329
100015.69016582843
99963.44676316364
100097.09886907841
99716.82933222131
100847.93135750946
97442.28663349923
107879.27090225372
78540.85932795158
323817.0676982943
813088.0712533322
1.0470739124171806e6
1.055062648594179e6
1.0625578469702953e6
1.0689218949900023e6
1.0741939072237185e6
1.0783079144136691e6
1.0813151164129467e6
1.083042868134398e6
1.0835763458141626e6
1.0824275476324493e6
1.079952545770259e6
1.074665035830131e6
1.068187450259384e6
1.0554380330598683e6
1.0448801636359211e6
1.0152294955286118e6
1.0221821605651974e6
99999.99955753415
100000.00073876567
99999.9987759466
100000.00202816809
99999.996614108
100000.00563150008
99999.99056336044
100000.01579509591
99999.97341818245
100000.04478952993
99999.92421825824
100000.12853240188
99999.78122905642
100000.37344903778
99999.36041174372
100001.09896538811
99998.10448880818
100003.28568049219
99994.26109245305
100010.15336221369
99981.62030967796
100034.58328804869
99930.6781465795
100151.21575122318
99634.4226796367
100969.58602982077
97261.20640416523
108421.4638279908
76534.3450777052
240409.29761327707
716334.7004259549
1.0199813003408848e6
1.047718883967705e6
1.0521101482098745e6
1.058026547674117e6
1.0622834610393937e6
1.065306955051524e6
1.0670223544847355e6
1.067246152900369e6
1.0660014797998155e6
1.0627795036438953e6
1.057860960236533e6
1.0499178845576092e6
1.040387598775901e6
1.025525872467521e6
1.0106957888536912e6
982470.7120948234
948906.9325870759
99999.99963675735
100000.00060967424
99999.99897186618
100000.0017220972
99999.99707809466
100000.00493255434
99999.99159270349
100000.0143250529
99999.97542518118
100000.04227290982
99999.92687413808
100000.12703676353
99999.77813245519
100000.38941712056
99999.31288649102
100001.2187507542
99997.82681771817
100003.89619424222
99992.97445408517
100012.75494230076
99976.63313222016
100043.40227812418
99917.49339696093
100162.93652551815
99657.79455810152
100783.3399939117
98032.86965594451
105620.20416114053
84187.03591748881
168353.40548813823
604777.1473587803
977400.5970318599
1.0398756548954751e6
1.0413463530720875e6
1.0466066335539615e6
1.0497966460849803e6
1.0516173601781868e6
1.051898522408898e6
1.0503953060399618e6
1.0470087028023757e6
1.0410418069224186e6
1.0323749523651064e6
1.0189977455138647e6
1.0007139237930544e6
970646.7166473134
927060.3775743964
839879.854580322
686114.882035253
99999.99973396448
100000.00044147267
99999.99924359735
100000.00126692494
99999.99783039774
100000.00367958602
99999.99368126811
100000.01083770659
99999.98126485154
100000.03248394617
99999.94331744753
100000.09939667225
99999.82461975301
100000.31126725658
99999.44408103607
100000.9989662234
99998.19404067709
100003.2831698253
99994.00236316342
100010.99730463469
99979.79434908964
100037.12333934731
99931.95663359131
100124.1767945678
99773.94743444386
100413.90837397893
99214.12842463182
101668.696690266
95935.41038020226
114057.66617693838
483402.1565083125
913937.7388606505
1.029313840242703e6
1.0305750761733353e6
1.0347428081850369e6
1.0368688125022928e6
1.0374196059241539e6
1.0362023546512877e6
1.0329021882905673e6
1.0273119452385267e6
1.0185920279725252e6
1.006353535787482e6
988276.0090376148
963486.8579775955
924830.1702552246
869161.6311851302
771901.7985713857
613898.6749626497
99999.99983291188
100000.00026691354
99999.99953520417
100000.00076545708
99999.99868827363
100000.00220150253
99999.99624057743
100000.00638703012
99999.98905320343
100000.01878752159
99999.96755428512
100000.05626919225
99999.90183310318
100000.17223202452
99999.69592332588
100000.54022318163
99999.03438091783
100001.7353033833
99996.87031894711
100005.64663063656
99989.87237953143
100017.85655089891
99969.72122783508
100046.97914006987
99942.12803446881
100012.94166765385
100263.2759065922
98620.16224874387
105281.77762828866
83204.51096809079
360936.860842066
825203.0392534981
1.0116661414654243e6
1.0199556495401828e6
1.0225081775797312e6
1.0236300760794531e6
1.0228980032836598e6
1.0201770197901437e6
1.0150910946800384e6
1.0073507513225096e6
996018.142596812
980557.4713868346
958531.5040136665
928953.0783012586
885027.0985928059
824843.6207946114
728494.4270619197
593735.3967270082
99999.99991843887
100000.00011692669
99999.99979139309
100000.00032194759
99999.9994589367
100000.00085786256
99999.99860030694
100000.00222582591
99999.99644257936
100000.00559233068
99999.9912772462
100000.01334253652
99999.98004022063
100000.02877346413
99999.96086235975
100000.04766368009
99999.95590189923
100000.00122562138
100000.14967714701
99999.42122560868
100001.71742088746
99995.31111693916
100012.55580400638
99965.88638648506
100095.16062773515
99723.6101594557
100824.2970131066
97471.69371210816
108084.42627781098
76254.1004044156
248403.76728242153
710495.7172728948
980842.0817547375
1.0094043787912207e6
1.010087684706271e6
1.0102361253078766e6
1.0082569294446277e6
1.0040910653615056e6
997318.9558074244
987611.2561575427
973987.0408932456
955889.201106937
930911.4854463099
898326.9145395705
851892.6092095515
791668.7149868626
701039.9640106829
588537.0807019265
99999.99998041517
100000.0000117968
99999.99997398107
100000.00000942819
100000.0000031909
99999.99991438152
100000.00025251378
99999.99932777771
100000.00156263476
99999.9965059346
100000.00750904113
99999.9841764837
100000.03280329643
99999.93269161781
100000.1370595411
99999.72233634174
100000.56060798049
99998.87045437787
100002.27402550241
99995.42071664317
100009.2368336605
99981.30209633814
100038.09455256272
99921.45674042884
100165.01564357316
99641.5912082234
100815.05716099631
98025.06223444355
105276.2796811187
85773.1725577048
157105.13520264244
573967.7564257451
929024.0091009901
997807.0065920189
997823.327070134
996884.3467466813
993709.4992840756
988190.0365751087
979887.0993724031
968461.5156725864
952939.676638971
932823.1442483576
905847.7215811893
871655.3455873604
824733.193706332
766579.870876368
683794.0433016281
588374.0051675658
100000.00001593406
99999.99995648688
100000.00007152677
99999.99985002163
100000.00027574495
99999.99946037513
100000.00101975583
99999.99804252513
100000.00372275677
99999.99289001754
100000.0135531171
99999.97411486269
100000.04946836934
99999.90528142595
100000.18168007841
99999.65072322854
100000.67303438201
99998.70001943457
100002.5164742842
99995.120670648
100009.46835106416
99981.64447280488
100035.45850044751
99932.04200202873
100128.28659437016
99764.07918618721
100413.01572168732
99339.37195510136
100865.4161606617
99628.15746534016
98086.71320392952
426430.59313639364
847369.380950306
981082.4581134644
985773.8906646534
983668.0784786682
979408.8708188867
972670.9041772578
963032.582941579