# vtk DataFile Version 2.0
JuliaCFD
ASCII
DATASET UNSTRUCTURED_GRID

POINTS 32898 float
0.0 0.0 -0.05
0.0125 0.0 -0.05
0.025 0.0 -0.05
0.0375 0.0 -0.05
0.05 0.0 -0.05
0.0625 0.0 -0.05
0.075 0.0 -0.05
0.0875 0.0 -0.05
0.1 0.0 -0.05
0.1125 0.0 -0.05
0.125 0.0 -0.05
0.1375 0.0 -0.05
0.15 0.0 -0.05
0.1625 0.0 -0.05
0.175 0.0 -0.05
0.1875 0.0 -0.05
0.2 0.0 -0.05
0.2125 0.0 -0.05
0.225 0.0 -0.05
0.2375 0.0 -0.05
0.25 0.0 -0.05
0.2625 0.0 -0.05
0.275 0.0 -0.05
0.2875 0.0 -0.05
0.3 0.0 -0.05
0.3125 0.0 -0.05
0.325 0.0 -0.05
0.3375 0.0 -0.05
0.35 0.0 -0.05
0.3625 0.0 -0.05
0.375 0.0 -0.05
0.3875 0.0 -0.05
0.4 0.0 -0.05
0.4125 0.0 -0.05
0.425 0.0 -0.05
0.4375 0.0 -0.05
0.45 0.0 -0.05
0.4625 0.0 -0.05
0.475 0.0 -0.05
0.4875 0.0 -0.05
0.5 0.0 -0.05
0.5125 0.0 -0.05
0.525 0.0 -0.05
0.5375 0.0 -0.05
0.55 0.0 -0.05
0.5625 0.0 -0.05
0.575 0.0 -0.05
0.5875 0.0 -0.05
0.6 0.0 -0.05
0.0 0.0125 -0.05
0.0125 0.0125 -0.05
0.025 0.0125 -0.05
0.0375 0.0125 -0.05
0.05 0.0125 -0.05
0.0625 0.0125 -0.05
0.075 0.0125 -0.05
0.0875 0.0125 -0.05
0.1 0.0125 -0.05
0.1125 0.0125 -0.05
0.125 0.0125 -0.05
0.1375 0.0125 -0.05
0.15 0.0125 -0.05
0.1625 0.0125 -0.05
0.175 0.0125 -0.05
0.1875 0.0125 -0.05
0.2 0.0125 -0.05
0.2125 0.0125 -0.05
0.225 0.0125 -0.05
0.2375 0.0125 -0.05
0.25 0.0125 -0.05
0.2625 0.0125 -0.05
0.275 0.0125 -0.05
0.2875 0.0125 -0.05
0.3 0.0125 -0.05
0.3125 0.0125 -0.05
0.325 0.0125 -0.05
0.3375 0.0125 -0.05
0.35 0.0125 -0.05
0.3625 0.0125 -0.05
0.375 0.0125 -0.05
0.3875 0.0125 -0.05
0.4 0.0125 -0.05
0.4125 0.0125 -0.05
0.425 0.0125 -0.05
0.4375 0.0125 -0.05
0.45 0.0125 -0.05
0.4625 0.0125 -0.05
0.475 0.0125 -0.05
0.4875 0.0125 -0.05
0.5 0.0125 -0.05
0.5125 0.0125 -0.05
0.525 0.0125 -0.05
0.5375 0.0125 -0.05
0.55 0.0125 -0.05
0.5625 0.0125 -0.05
0.575 0.0125 -0.05
0.5875 0.0125 -0.05
0.6 0.0125 -0.05
0.0 0.025 -0.05
0.0125 0.025 -0.05
0.025 0.025 -0.05
0.0375 0.025 -0.05
0.05 0.025 -0.05
0.0625 0.025 -0.05
0.075 0.025 -0.05
0.0875 0.025 -0.05
0.1 0.025 -0.05
0.1125 0.025 -0.05
0.125 0.025 -0.05
0.1375 0.025 -0.05
0.15 0.025 -0.05
0.1625 0.025 -0.05
0.175 0.025 -0.05
0.1875 0.025 -0.05
0.2 0.025 -0.05
0.2125 0.025 -0.05
0.225 0.025 -0.05
0.2375 0.025 -0.05
0.25 0.025 -0.05
0.2625 0.025 -0.05
0.275 0.025 -0.05
0.2875 0.025 -0.05
0.3 0.025 -0.05
0.3125 0.025 -0.05
0.325 0.025 -0.05
0.3375 0.025 -0.05
0.35 0.025 -0.05
0.3625 0.025 -0.05
0.375 0.025 -0.05
0.3875 0.025 -0.05
0.4 0.025 -0.05
0.4125 0.025 -0.05
0.425 0.025 -0.05
0.4375 0.025 -0.05
0.45 0.025 -0.05
0.4625 0.025 -0.05
0.475 0.025 -0.05
0.4875 0.025 -0.05
0.5 0.025 -0.05
0.5125 0.025 -0.05
0.525 0.025 -0.05
0.5375 0.025 -0.05
0.55 0.025 -0.05
0.5625 0.025 -0.05
0.575 0.025 -0.05
0.5875 0.025 -0.05
0.6 0.025 -0.05
0.0 0.0375 -0.05
0.0125 0.0375 -0.05
0.025 0.0375 -0.05
0.0375 0.0375 -0.05
0.05 0.0375 -0.05
0.0625 0.0375 -0.05
0.075 0.0375 -0.05
0.0875 0.0375 -0.05
0.1 0.0375 -0.05
0.1125 0.0375 -0.05
0.125 0.0375 -0.05
0.1375 0.0375 -0.05
0.15 0.0375 -0.05
0.1625 0.0375 -0.05
0.175 0.0375 -0.05
0.1875 0.0375 -0.05
0.2 0.0375 -0.05
0.2125 0.0375 -0.05
0.225 0.0375 -0.05
0.2375 0.0375 -0.05
0.25 0.0375 -0.05
0.2625 0.0375 -0.05
0.275 0.0375 -0.05
0.2875 0.0375 -0.05
0.3 0.0375 -0.05
0.3125 0.0375 -0.05
0.325 0.0375 -0.05
0.3375 0.0375 -0.05
0.35 0.0375 -0.05
0.3625 0.0375 -0.05
0.375 0.0375 -0.05
0.3875 0.0375 -0.05
0.4 0.0375 -0.05
0.4125 0.0375 -0.05
0.425 0.0375 -0.05
0.4375 0.0375 -0.05
0.45 0.0375 -0.05
0.4625 0.0375 -0.05
0.475 0.0375 -0.05
0.4875 0.0375 -0.05
0.5 0.0375 -0.05
0.5125 0.0375 -0.05
0.525 0.0375 -0.05
0.5375 0.0375 -0.05
0.55 0.0375 -0.05
0.5625 0.0375 -0.05
0.575 0.0375 -0.05
0.5875 0.0375 -0.05
0.6 0.0375 -0.05
0.0 0.05 -0.05
0.0125 0.05 -0.05
0.025 0.05 -0.05
0.0375 0.05 -0.05
0.05 0.05 -0.05
0.0625 0.05 -0.05
0.075 0.05 -0.05
0.0875 0.05 -0.05
0.1 0.05 -0.05
0.1125 0.05 -0.05
0.125 0.05 -0.05
0.1375 0.05 -0.05
0.15 0.05 -0.05
0.1625 0.05 -0.05
0.175 0.05 -0.05
0.1875 0.05 -0.05
0.2 0.05 -0.05
0.2125 0.05 -0.05
0.225 0.05 -0.05
0.2375 0.05 -0.05
0.25 0.05 -0.05
0.2625 0.05 -0.05
0.275 0.05 -0.05
0.2875 0.05 -0.05
0.3 0.05 -0.05
0.3125 0.05 -0.05
0.325 0.05 -0.05
0.3375 0.05 -0.05
0.35 0.05 -0.05
0.3625 0.05 -0.05
0.375 0.05 -0.05
0.3875 0.05 -0.05
0.4 0.05 -0.05
0.4125 0.05 -0.05
0.425 0.05 -0.05
0.4375 0.05 -0.05
0.45 0.05 -0.05
0.4625 0.05 -0.05
0.475 0.05 -0.05
0.4875 0.05 -0.05
0.5 0.05 -0.05
0.5125 0.05 -0.05
0.525 0.05 -0.05
0.5375 0.05 -0.05
0.55 0.05 -0.05
0.5625 0.05 -0.05
0.575 0.05 -0.05
0.5875 0.05 -0.05
0.6 0.05 -0.05
0.0 0.0625 -0.05
0.0125 0.0625 -0.05
0.025 0.0625 -0.05
0.0375 0.0625 -0.05
0.05 0.0625 -0.05
0.0625 0.0625 -0.05
0.075 0.0625 -0.05
0.0875 0.0625 -0.05
0.1 0.0625 -0.05
0.1125 0.0625 -0.05
0.125 0.0625 -0.05
0.1375 0.0625 -0.05
0.15 0.0625 -0.05
0.1625 0.0625 -0.05
0.175 0.0625 -0.05
0.1875 0.0625 -0.05
0.2 0.0625 -0.05
0.2125 0.0625 -0.05
0.225 0.0625 -0.05
0.2375 0.0625 -0.05
0.25 0.0625 -0.05
0.2625 0.0625 -0.05
0.275 0.0625 -0.05
0.2875 0.0625 -0.05
0.3 0.0625 -0.05
0.3125 0.0625 -0.05
0.325 0.0625 -0.05
0.3375 0.0625 -0.05
0.35 0.0625 -0.05
0.3625 0.0625 -0.05
0.375 0.0625 -0.05
0.3875 0.0625 -0.05
0.4 0.0625 -0.05
0.4125 0.0625 -0.05
0.425 0.0625 -0.05
0.4375 0.0625 -0.05
0.45 0.0625 -0.05
0.4625 0.0625 -0.05
0.475 0.0625 -0.05
0.4875 0.0625 -0.05
0.5 0.0625 -0.05
0.5125 0.0625 -0.05
0.525 0.0625 -0.05
0.5375 0.0625 -0.05
0.55 0.0625 -0.05
0.5625 0.0625 -0.05
0.575 0.0625 -0.05
0.5875 0.0625 -0.05
0.6 0.0625 -0.05
0.0 0.075 -0.05
0.0125 0.075 -0.05
0.025 0.075 -0.05
0.0375 0.075 -0.05
0.05 0.075 -0.05
0.0625 0.075 -0.05
0.075 0.075 -0.05
0.0875 0.075 -0.05
0.1 0.075 -0.05
0.1125 0.075 -0.05
0.125 0.075 -0.05
0.1375 0.075 -0.05
0.15 0.075 -0.05
0.1625 0.075 -0.05
0.175 0.075 -0.05
0.1875 0.075 -0.05
0.2 0.075 -0.05
0.2125 0.075 -0.05
0.225 0.075 -0.05
0.2375 0.075 -0.05
0.25 0.075 -0.05
0.2625 0.075 -0.05
0.275 0.075 -0.05
0.2875 0.075 -0.05
0.3 0.075 -0.05
0.3125 0.075 -0.05
0.325 0.075 -0.05
0.3375 0.075 -0.05
0.35 0.075 -0.05
0.3625 0.075 -0.05
0.375 0.075 -0.05
0.3875 0.075 -0.05
0.4 0.075 -0.05
0.4125 0.075 -0.05
0.425 0.075 -0.05
0.4375 0.075 -0.05
0.45 0.075 -0.05
0.4625 0.075 -0.05
0.475 0.075 -0.05
0.4875 0.075 -0.05
0.5 0.075 -0.05
0.5125 0.075 -0.05
0.525 0.075 -0.05
0.5375 0.075 -0.05
0.55 0.075 -0.05
0.5625 0.075 -0.05
0.575 0.075 -0.05
0.5875 0.075 -0.05
0.6 0.075 -0.05
0.0 0.0875 -0.05
0.0125 0.0875 -0.05
0.025 0.0875 -0.05
0.0375 0.0875 -0.05
0.05 0.0875 -0.05
0.0625 0.0875 -0.05
0.075 0.0875 -0.05
0.0875 0.0875 -0.05
0.1 0.0875 -0.05
0.1125 0.0875 -0.05
0.125 0.0875 -0.05
0.1375 0.0875 -0.05
0.15 0.0875 -0.05
0.1625 0.0875 -0.05
0.175 0.0875 -0.05
0.1875 0.0875 -0.05
0.2 0.0875 -0.05
0.2125 0.0875 -0.05
0.225 0.0875 -0.05
0.2375 0.0875 -0.05
0.25 0.0875 -0.05
0.2625 0.0875 -0.05
0.275 0.0875 -0.05
0.2875 0.0875 -0.05
0.3 0.0875 -0.05
0.3125 0.0875 -0.05
0.325 0.0875 -0.05
0.3375 0.0875 -0.05
0.35 0.0875 -0.05
0.3625 0.0875 -0.05
0.375 0.0875 -0.05
0.3875 0.0875 -0.05
0.4 0.0875 -0.05
0.4125 0.0875 -0.05
0.425 0.0875 -0.05
0.4375 0.0875 -0.05
0.45 0.0875 -0.05
0.4625 0.0875 -0.05
0.475 0.0875 -0.05
0.4875 0.0875 -0.05
0.5 0.0875 -0.05
0.5125 0.0875 -0.05
0.525 0.0875 -0.05
0.5375 0.0875 -0.05
0.55 0.0875 -0.05
0.5625 0.0875 -0.05
0.575 0.0875 -0.05
0.5875 0.0875 -0.05
0.6 0.0875 -0.05
0.0 0.1 -0.05
0.0125 0.1 -0.05
0.025 0.1 -0.05
0.0375 0.1 -0.05
0.05 0.1 -0.05
0.0625 0.1 -0.05
0.075 0.1 -0.05
0.0875 0.1 -0.05
0.1 0.1 -0.05
0.1125 0.1 -0.05
0.125 0.1 -0.05
0.1375 0.1 -0.05
0.15 0.1 -0.05
0.1625 0.1 -0.05
0.175 0.1 -0.05
0.1875 0.1 -0.05
0.2 0.1 -0.05
0.2125 0.1 -0.05
0.225 0.1 -0.05
0.2375 0.1 -0.05
0.25 0.1 -0.05
0.2625 0.1 -0.05
0.275 0.1 -0.05
0.2875 0.1 -0.05
0.3 0.1 -0.05
0.3125 0.1 -0.05
0.325 0.1 -0.05
0.3375 0.1 -0.05
0.35 0.1 -0.05
0.3625 0.1 -0.05
0.375 0.1 -0.05
0.3875 0.1 -0.05
0.4 0.1 -0.05
0.4125 0.1 -0.05
0.425 0.1 -0.05
0.4375 0.1 -0.05
0.45 0.1 -0.05
0.4625 0.1 -0.05
0.475 0.1 -0.05
0.4875 0.1 -0.05
0.5 0.1 -0.05
0.5125 0.1 -0.05
0.525 0.1 -0.05
0.5375 0.1 -0.05
0.55 0.1 -0.05
0.5625 0.1 -0.05
0.575 0.1 -0.05
0.5875 0.1 -0.05
0.6 0.1 -0.05
0.0 0.1125 -0.05
0.0125 0.1125 -0.05
0.025 0.1125 -0.05
0.0375 0.1125 -0.05
0.05 0.1125 -0.05
0.0625 0.1125 -0.05
0.075 0.1125 -0.05
0.0875 0.1125 -0.05
0.1 0.1125 -0.05
0.1125 0.1125 -0.05
0.125 0.1125 -0.05
0.1375 0.1125 -0.05
0.15 0.1125 -0.05
0.1625 0.1125 -0.05
0.175 0.1125 -0.05
0.1875 0.1125 -0.05
0.2 0.1125 -0.05
0.2125 0.1125 -0.05
0.225 0.1125 -0.05
0.2375 0.1125 -0.05
0.25 0.1125 -0.05
0.2625 0.1125 -0.05
0.275 0.1125 -0.05
0.2875 0.1125 -0.05
0.3 0.1125 -0.05
0.3125 0.1125 -0.05
0.325 0.1125 -0.05
0.3375 0.1125 -0.05
0.35 0.1125 -0.05
0.3625 0.1125 -0.05
0.375 0.1125 -0.05
0.3875 0.1125 -0.05
0.4 0.1125 -0.05
0.4125 0.1125 -0.05
0.425 0.1125 -0.05
0.4375 0.1125 -0.05
0.45 0.1125 -0.05
0.4625 0.1125 -0.05
0.475 0.1125 -0.05
0.4875 0.1125 -0.05
0.5 0.1125 -0.05
0.5125 0.1125 -0.05
0.525 0.1125 -0.05
0.5375 0.1125 -0.05
0.55 0.1125 -0.05
0.5625 0.1125 -0.05
0.575 0.1125 -0.05
0.5875 0.1125 -0.05
0.6 0.1125 -0.05
0.0 0.125 -0.05
0.0125 0.125 -0.05
0.025 0.125 -0.05
0.0375 0.125 -0.05
0.05 0.125 -0.05
0.0625 0.125 -0.05
0.075 0.125 -0.05
0.0875 0.125 -0.05
0.1 0.125 -0.05
0.1125 0.125 -0.05
0.125 0.125 -0.05
0.1375 0.125 -0.05
0.15 0.125 -0.05
0.1625 0.125 -0.05
0.175 0.125 -0.05
0.1875 0.125 -0.05
0.2 0.125 -0.05
0.2125 0.125 -0.05
0.225 0.125 -0.05
0.2375 0.125 -0.05
0.25 0.125 -0.05
0.2625 0.125 -0.05
0.275 0.125 -0.05
0.2875 0.125 -0.05
0.3 0.125 -0.05
0.3125 0.125 -0.05
0.325 0.125 -0.05
0.3375 0.125 -0.05
0.35 0.125 -0.05
0.3625 0.125 -0.05
0.375 0.125 -0.05
0.3875 0.125 -0.05
0.4 0.125 -0.05
0.4125 0.125 -0.05
0.425 0.125 -0.05
0.4375 0.125 -0.05
0.45 0.125 -0.05
0.4625 0.125 -0.05
0.475 0.125 -0.05
0.4875 0.125 -0.05
0.5 0.125 -0.05
0.5125 0.125 -0.05
0.525 0.125 -0.05
0.5375 0.125 -0.05
0.55 0.125 -0.05
0.5625 0.125 -0.05
0.575 0.125 -0.05
0.5875 0.125 -0.05
0.6 0.125 -0.05
0.0 0.1375 -0.05
0.0125 0.1375 -0.05
0.025 0.1375 -0.05
0.0375 0.1375 -0.05
0.05 0.1375 -0.05
0.0625 0.1375 -0.05
0.075 0.1375 -0.05
0.0875 0.1375 -0.05
[...]
CELL_DATA 16128
SCALARS P float 1
LOOKUP_TABLE default
99999.99938165692
100000.00115985257
99999.9980658039
100000.00337239416
99999.99440455253
100000.00933568047
99999.98483132359
100000.02442296257
99999.96148731693
100000.05970473857
99999.90960939499
100000.1332165354
99999.81068544711
100000.25578081777
99999.6811073996
100000.34130787195
99999.76469835201
99999.81079447185
100001.3318384222
99995.98017914995
100009.9966774617
99976.96511976376
100051.65954718033
99883.83341630406
100265.72649048545
99376.57095289319
101496.53113060276
96468.37371568005
108685.12609603448
82929.96516467188
362331.9222615256
893548.4050785055
1.1515456439706744e6
1.1325065338455015e6
1.1510182653709305e6
1.162989754116957e6
1.1735951739508288e6
1.1846263958344394e6
1.1939449469149022e6
1.2029547099261084e6
1.2106230151658366e6
1.217911903660516e6
1.2234678356823497e6
1.2294238205733642e6
1.2320632332897496e6
1.2377766636160053e6
1.2354101432047773e6
1.244319523556748e6
99999.99938672635
100000.00115131441
99999.99807690678
100000.00335664548
99999.99442361227
100000.00931404025
99999.98485172576
100000.02440979895
99999.9614906302
100000.05970024076
99999.9096866248
100000.13284511158
99999.81195067469
100000.25221471948
99999.69005246014
100000.32079503562
99999.80843811463
99999.72381587532
100001.49299512983
99995.7061177888
100010.4127319043
99976.44872355688
100052.04102082466
99884.28400776224
100263.17216709741
99382.81777285667
101490.43993368691
96448.35468416203
108868.30340800958
82280.3494221764
358307.50237850775
891603.6864611352
1.1560596385755711e6
1.1387564162443157e6
1.157625114885615e6
1.1700597648853e6
1.180775805572636e6
1.1919073911360395e6
1.2012734722282183e6
1.2103233817973812e6
1.218021003277858e6
1.2253241854774633e6
1.2308597593654247e6
1.2367619189608123e6
1.239280551471135e6
1.2448846352869428e6
1.242290769595433e6
1.251266536100867e6
99999.99941454366
100000.00110328289
99999.99815326721
100000.00323163766
99999.99461828153
100000.00901169537
99999.98530252586
100000.02375710117
99999.96238067755
100000.05858731824
99999.91083913168
100000.13222544617
99999.81057121688
100000.25893449444
99999.67075644339
100000.36765094775
99999.70367746663
99999.94642638964
100001.03537883272
99996.62435246464
100008.60216120344
99979.9705529873
100045.28988887795
99897.01221644875
100240.12201049452
99421.31835826376
101440.35776176557
96453.84073220099
109223.20992495741
80577.16708208715
345272.53901210584
876310.5931968188
1.1499045699205776e6
1.1346522902383471e6
1.1519266239990399e6
1.1644161350406585e6
1.1747834196366325e6
1.1857486385964407e6
1.1949518390218602e6
1.2038536349688775e6
1.211426891194966e6
1.2186194155812475e6
1.2240846081936443e6
1.2299514391697478e6
1.232483850523813e6
1.2381538659521118e6
1.2355618790074983e6
1.2447758278482151e6
99999.99945466552
100000.00103362216
99999.998263893
100000.0030503607
99999.99490049871
100000.00857376326
99999.98595474914
100000.02281487253
99999.96366296864
100000.05698766261
99999.91250026568
100000.13129668009
99999.80878057795
100000.26792100251
99999.64509167967
100000.4293720257
99999.56746040631
100000.2322807647
100000.45510314197
99997.77786539527
100006.34070980737
99984.37616246838
100036.76023670619
99913.4511413044
100209.28603938967
99475.97757594839
101360.32298958609
96500.29165677576
109591.06798128017
78517.73353938347
326620.64199317014
856306.2783001598
1.14631683843325e6
1.1354043537063801e6
1.1511999047755194e6
1.164406363236436e6
1.1747058014328643e6
1.1857660754419493e6
1.1950072885946652e6
1.203939737198085e6
1.2115520704131972e6
1.2187780466693556e6
1.224282724705478e6
1.230185472906883e6
1.2327349816307093e6
1.2384598321842398e6
1.23576695251174e6
1.2452542780762026e6
99999.99950526634
100000.00094541963
99999.99840418607
100000.00281980255
99999.99526045583
100000.00801301996
99999.98679441036
100000.02159136308
99999.96535264164
100000.05481723334
99999.91491926668
100000.12942716916
99999.80801987182
100000.27602864127
99999.619581518
100000.49272038962
99999.42570785242
100000.53132412488
99999.8459305237
99998.99304783468
100003.93929199319
99989.12138616291
100027.33976657683
99932.31003593259
100171.83031743206
99548.2815436549
101234.88596818816
96652.06558966223
109721.48938075794
76715.81094998909
301923.24548944394
827332.8236896069
1.1383598392721782e6
1.1337351739763422e6
1.146760197152245e6
1.1604556256984344e6
1.1703212920915945e6
1.1811963594105658e6
1.1902351647889526e6
1.1989681763812704e6
1.20641023903088e6
1.2134703752344968e6
1.2188399783625125e6
1.2246279922298433e6
1.2270824583408465e6
1.2327880644296517e6
1.2299386284483022e6
1.2397379817017764e6
99999.99956399265
100000.00084262367
99999.99856821501
100000.00254915662
99999.99568497555
100000.00734788783
99999.98779860693
100000.02011082335
99999.96743737595
100000.05204648581
99999.91824302496
100000.12620125913
99999.80930797209
100000.28100098214
99999.599039833
100000.54790281274
99999.29810127559
100000.8050894979
99999.28302404516
100000.12542147472
100001.67650134646
99993.67753185659
100018.00993340778
99951.8798084514
100130.23498142432
99636.5851372405
101055.74388194596
96961.8842802779
109360.84565916237
75946.33945285268
272574.07388358365
790412.4323073153
1.1278540962333458e6
1.1330628819866623e6
1.1428037409750016e6
1.15734652263835e6
1.1669294766459083e6
1.1777519083952748e6
1.1867132359988631e6
1.1953540609802096e6
1.2027339912691321e6
1.2097341732506906e6
1.215072561942701e6
1.2208489533809046e6
1.2232879545391137e6
1.2290615851451717e6
1.2260802338224065e6
1.2362968825500007e6
99999.99962826911
100000.00072945347
99999.99874959806
100000.00224827613
99999.99615969977
100000.00659888433
99999.98893969528
100000.01840761745
99999.96987987975
100000.04870161456
99999.9224856508
100000.12149164458
99999.81301818503
100000.28192007556
99999.58545960682
100000.59067506368
99999.19329461457
100001.03556576777
99998.80362218023
100001.09521037652
99999.72449389343
99997.66479395027
100009.5960793997
99970.41939569058
100087.79416957867
99735.91741974182
100823.83930527014
97461.70673376811
108322.93766470367
76905.63466951167
239576.45539633185
744449.6816792695
1.112398429298782e6
1.1318227612758346e6
1.1373517177658728e6
1.1526491502784889e6
1.161798525600188e6
1.1723810333716834e6
1.1811070293195099e6
1.1894795099760843e6
1.1966191282561098e6
1.2033688421158686e6
1.2084767066611627e6
1.2140379621743024e6
1.2162621041848771e6
1.221937606040857e6
1.2186527570985402e6
1.2293237655117118e6
99999.9996954938
100000.00061009852
99999.99894203524
100000.00192685224
99999.99667066375
100000.0057861468
99999.9901903553
100000.01651804187
99999.97263538271
100000.04483597123
99999.92759001463
100000.11536107071
99999.81908303912
100000.27890525298
99999.57859215063
100000.62169591831
99999.109878845
100001.22557580397
99998.40404689885
100001.90263692675
99998.10788135685
100000.9636798823
100002.52291879634
99986.6377864327
100047.94457360584
99838.2568988508
100554.4350469737
98138.61545005786
106553.8682977218
80079.24679953733
204484.7513613259
689410.0495599965
1.0909935377107072e6
1.1306091306283872e6
1.1314143427538746e6
1.1474627296539599e6
1.1562615647461144e6
1.1665891578474029e6
1.17510703810777e6
1.1832293504151595e6
1.19016636825176e6
1.1967232094354504e6
1.2016877412881814e6
1.2071465159107037e6
1.2092912113889742e6
1.2150305249973857e6
1.2115323766463152e6
1.2228337656053277e6
99999.9997631323
100000.0004885624
99999.9991395607
100000.00159386167
99999.99720525712
100000.00492705588
99999.99152825
100000.01446893605
99999.97567460829
100000.04047681479
99999.93353286327
100000.10783308271
99999.827427787
100000.27222799163
99999.57752148157
100000.6435480126
99999.04116225474
100001.39081803853
99998.04979428391
100002.6174797295
99996.69905334321
100003.77054813839
99996.60715686055
100000.27838445938
100012.93154953532
99934.89688484378
100274.0189459532
98928.86653112104
104204.5403748715
85507.92655904603
169136.7509570005
625282.2989240148
1.0615979758469537e6
1.128820990071901e6
1.1247424464398755e6
1.1411978463240028e6
1.1496400743082322e6
1.1595317616740805e6
1.1676981075867729e6
1.175383138978988e6
1.181896500855991e6
1.1879929931915472e6
1.1924824116953763e6
1.1974586674735015e6
1.1990868126674267e6
1.204493559788203e6
1.200336195478903e6
1.2122647515561343e6
99999.99982875018
100000.00036872532
99999.99933645614
100000.00125782526
99999.99775196223
100000.00403654088
99999.99293690249
100000.01227415475
99999.978997486
100000.03559030678
99999.94041927603
100000.09867978308
99999.83846901105
100000.2612702229
99999.58290959732
100000.65630753688
99998.9840833229
100001.54328432429
99997.70628659574
100003.32635260033
99995.30263779902
100006.48251040388
99991.15888866855
100012.19524957245
99983.07451171611
100018.95646052744
100015.55511425207
99725.20025466966
101636.65455623266
92579.99326062114
135881.94465048602
552815.3979573532
1.0221325591756646e6
1.1258988026542533e6
1.1177722906279885e6
1.1340557343486457e6
1.1422524404261003e6
1.1515970962261995e6
1.15937427371172e6
1.1665889295897884e6
1.1726842248621995e6
1.178382216864048e6
1.1825388706574093e6
1.187265357307912e6
1.1887193883391102e6
1.1941778751895702e6
1.1897166420064007e6
1.2025996411711993e6
99999.99988994877
100000.00025457719
99999.99952675166
100000.0009278217
99999.9982982706
100000.00313075472
99999.99439907298
100000.00994461337
99999.98261827574
100000.0300956812
99999.94847899766
100000.08736427757
99999.85332696924
100000.24386156806
99999.59866006153
100000.65345803024
99998.94838552568
100001.67099062211
99997.38142462303
100004.04621696252
99993.82417034428
100009.38905364838
99985.49462776292
100023.66338712718
99957.13610342109
100087.16504665905
99807.7749668072
100401.54305657589
99338.87218183494
99954.64196548531
107588.172589191
473648.98774771567
970157.5452976926
1.1204410008546102e6
1.1107077058303324e6
1.1258436598408138e6
1.133886299059947e6
1.1424734114572334e6
1.149667585542066e6
1.1561443488759017e6
1.161454941444048e6
1.1662566497616144e6
1.1693916473880827e6
1.17299007770841e6
1.1731196923716827e6
1.1774791551843057e6
1.1713268041860273e6
1.184932369677796e6
99999.99994434022
100000.00015043294
99999.99970367223
100000.0006148507
99999.99882770624
100000.00223342668
99999.99588409624
100000.00751319464
99999.98651948282
100000.02394948635
99999.95792371093
100000.07327666692
99999.87348602188
100000.21671434007
99999.63163541218
100000.62137272568
99998.9599955248
100001.7268103507
99997.15632262798
100004.64718287416
99992.44865015165
100012.27946991794
99979.73161575304
100034.91472044728
99934.50368192299
100138.20436150354
99669.471254553
100849.98264540717
97766.89716785339
105804.94884510445
87344.83336607933
390635.3889244241
903411.4701304529
1.110243192311819e6
1.103851658722158e6
1.1165790517425726e6
1.1246226404184978e6
1.1323266684935559e6
1.1388586924097538e6
1.144546438700411e6
1.1490877661112512e6
1.153120579256345e6
1.155575847882844e6
1.1586213963489272e6
1.1583984013287711e6
1.162699869767231e6
1.1562314672694644e6
1.1711316044001998e6
99999.99998961767
100000.00006089265
99999.99985945744
100000.0003325511
99999.99931761292
100000.00138143881
99999.99733470248
100000.00506393147
99999.99058926954
100000.01727430763
99999.96868723027
100000.05623824747
99999.8998296115
100000.17718842084
99999.68849242246
100000.54465106672
99999.05251745625
100001.64050899922
99997.17233450976
100004.85544009092
99991.6846494028
100014.25872380231
99975.33255967958
100043.78726102774
99917.94684379184
100168.39431355623
99610.16860327413
101013.10513160596
97180.63115887108
108522.0000404566
77450.87805516759
307748.3880472558
820425.2775863706
1.0921477061204412e6
1.0973202219887602e6
1.1062280212818983e6
1.114331784079335e6
1.1209643737301177e6
1.1265573415864147e6
1.1310675664946486e6
1.1342298841912656e6
1.1365838318248854e6
1.1369289671580181e6
1.1374005779037718e6
1.1337625316656244e6
1.134616288158663e6
1.122962182491615e6
1.1379124183329234e6
100000.00002382764
99999.99999033129
99999.99998605285
100000.00009627265
99999.99973997433
100000.00062511742
99999.99866276282
100000.00274725619
99999.99457882908
100000.01046543632
99999.98017677666
100000.0370594491
99999.93144150024
100000.12582090993
99999.77052839701
100000.41647729948
99999.24703613886
100001.35723495217
99997.55979489094
100004.3792578707
99992.15240804284
100014.06879047731
99974.69774591096
100046.04061457858
99913.97972798672
100169.88391324652
99632.61965995362
100900.3341437009
97548.54327561383
107640.39565024513
78113.35734081351
229717.27217266208
721202.78468689
1.0622330572839386e6
1.0909892580140778e6
1.0950072800734919e6
1.103087230383585e6
1.1085851700480557e6
1.113112370341279e6
1.1163820364559e6
1.118203419967173e6
1.1191281546551539e6
1.1181060927808501e6
1.1172802731053694e6
1.1128703878467875e6
1.1129104317287419e6
1.101352115923899e6
1.1157119840748867e6
100000.00004580509
99999.99994193093
100000.000076775
99999.99992006991
100000.00006652005
100000.00001994842
99999.99976191265
100000.00076309578
99999.99811987324
100000.00418847558
99999.99121474815
100000.017774371
99999.96490719696
100000.06812349119
99999.86930676349
100000.24863224864
99999.5297534855
100000.88582183073
99998.33619155205
100003.1189990364
99994.16493344898
100010.90127801389
99979.67627324215
100037.9080350421
99929.05529268671
100135.23437438333
99731.09327369426
100587.5008709994
98542.31379383281
104362.44893237362
86621.71222145238
162019.02657342388
607698.7603689351
1.0156999611622576e6
1.0839387324937067e6
1.0832590788870454e6
1.0908383500804442e6
1.0950941130354707e6
1.0982120180533936e6
1.099754677734958e6
1.0994010451209946e6
1.0974937637518458e6
1.0925631128344967e6
1.086323022935129e6
1.073590720431962e6
1.0631746402824202e6
1.0331246948165902e6
1.0406514265760194e6
100000.00005562998
99999.99991655831
100000.00012850518
99999.99981229787
100000.0002772426
99999.99961040393
100000.00053746629
99999.99930661685
100000.00081999319
99999.9992169168
100000.0003029969
100000.0012412452
99999.99485622288
100000.01404789314
99999.96668736803
100000.0736569114
99999.84354768539
100000.32413545992
99999.3395833693
100001.33019680686
99997.34690230033
100005.24503463374
99989.75371677459
100019.7217751254
99962.94503066782
100067.39786541017
99883.10659859442
100192.44584293156
99685.12885616292
100649.28153493306
97886.44986872631
111100.38733755032
484790.3883221932
947103.2702190024
1.073616233596437e6
1.071461262261176e6
1.0776870847634203e6
1.0807315085844672e6
1.0822831450600773e6
1.0820063622758673e6
1.0795079225025957e6
1.075079093316688e6
1.0674065510562935e6
1.0580294202996274e6
1.0431392674724766e6
1.0284057872432908e6
999884.2073539364
966402.4905171794
100000.0000548839
99999.99991200965
100000.0001434563
99999.99977165984
100000.00036894929
99999.99941202025
100000.00094320407
99999.9984942354
100000.00240898787
99999.9961470366
100000.00616857564
99999.99011022445
100000.01586926967
99999.97450315865
100000.04096476812
99999.9342339935
100000.10526440044
99999.83249573478
100000.26400717153
99999.59017796772
100000.62441479861
99999.06858705374
100001.39299910089
99997.76181403414
100004.55506276601
99987.2608717663
100043.49797412756
99843.15986796151
100548.1227145404
98151.49694402966
106042.68027339128
82690.30107812415
360990.2561620042
852168.8776877155
1.0552780763044804e6
1.0599340980978594e6
1.063676980887941e6
1.0655339743453362e6
1.065280763933857e6
1.0628151916954506e6
1.0574816315537575e6
1.0491838424577408e6
1.0359037089096664e6
1.017503652325363e6
986978.9943590747
942751.0406686146
854106.2914194008
698117.8935360396
100000.00004649807
99999.99992312798
100000.00012944877
99999.9997859268
100000.00035927013
99999.99940099752
100000.00100646504
99999.99830637276
100000.00286579944
99999.9951250155
100000.00834295723
99999.98562124008
100000.02495845186
99999.95633529156
100000.07699717236
99999.86311805612
100000.245319247
99999.55687059493
100000.80670938262
99998.52067777129
100002.73338283785
99994.91220632591
100009.56198031761
99981.81169169533
100035.33011144341
99929.04345057909
100150.72532678708
99652.58412508009
100884.83337849754
97523.53955100809
107722.6062488539
77281.45068156163
247133.42861470592
730194.6808156029
1.022309891779979e6
1.0487402788692978e6
1.0491302251890083e6
1.0497564827335908e6
1.0476261184492706e6
1.0428928711240796e6
1.0346987190015796e6
1.0226860943044306e6
1.0045183659400474e6
979368.042109358
939962.9819990749
883316.5210254065
784374.1501914038
624226.321723622
100000.00003414533
99999.99994294798
100000.0000981921
99999.99983461063
100000.00028292918
99999.99951855077
100000.00082492047
99999.9985827416
100000.00244704339
99999.99575024725
100000.00742248855
99999.98694297505
100000.02312663132
99999.9587134125
100000.07428152849
99999.86524064557
100000.24651257394
99999.5452695162
100000.8458881976
99998.41384609533
100002.99812988329
99994.2927429693
100010.94275159536
99978.89309869429
100041.0037523255
99919.72496085371
100159.49001411868
99674.80824037484
100698.78844963865
98371.68586481122
104397.44845567153
87471.52846940866
155050.05626968172
585476.921576734
965892.9169744006
1.0364945936374258e6
1.0345470597820033e6
1.0336724758485431e6
1.0296897284431763e6
1.0227212246342099e6
1.01180240048631e6
996427.024064112
974143.2733381765
944005.9059888198
899122.0937631654
837752.4597344163
739606.8251898567
602947.1517490792
100000.00002136575
99999.99996452362
100000.0000620707
99999.99989493935
100000.00018109314
99999.9996901624
100000.00053303437
99999.99908141229
100000.00158811748
99999.9972419645
100000.00480926062
99999.99156711648
100000.01486632923
99999.97362515007
100000.047096979
99999.91529755697
100000.15345958361
99999.71977332454
100000.51579731698
99999.04272291696
100001.7908031074
99996.62487681411
100006.40045091488
99987.8225103605
100023.15728586397
99956.38175677578
100080.45196080775
99858.44337384599
100226.84044196707
99710.32358516662
100136.7005326385
100920.80414186863
96656.61555925666
429789.65113116824
876440.0269711876
1.0184766588007632e6
1.0202049002426066e6
1.0174649603352881e6
1.0117978415431031e6
1.0027832112021504e6
989470.7157929399
971329.8100431334
945949.5432901764
912647.5176942153
865108.3375576983
803563.9018875542
711111.7110497018
596810.2817021906
100000.00001074569
99999.99998266765
100000.00003077638
99999.9999484433
100000.00008841156
99999.99985047395
100000.00025325606
99999.99957183447
100000.00072167996
99999.99878358033
100000.00204332592
99999.99657121794
100000.00573160617
99999.99045161802
100000.01581763006
99999.9739956361
100000.04232619482
99999.93219289287
100000.10642737488
99999.83886973388
100000.23138552363
99999.70367466215
100000.2886148408
100000.02612401004
99998.70891827252
100005.53862855979
99981.25337187425
100060.42621597693
99806.14763451144
100631.30627187222
97900.54336596608
107223.16998325095
77028.97301801854
282042.81987242657
748846.5199460888
986400.364181517
1.0061457413448031e6
1.0014551604576601e6
994271.8640434974
983474.8597068605
968174.9490140369
947903.1708542261
920403.8775543339
885367.4031248469
837236.5313045871
777666.2643700411
693063.0348920795
595857.9618536005
100000.00000351027
99999.99999489247
100000.0000093204
99999.99998524405
100000.00002426712
99999.99996183933
100000.00005865899
99999.99991306936
100000.00012060434
99999.99984859863
100000.00014653317
99999.99997169682
99999.99959662386
100000.00159524844
99999.99542207805
100000.01157912047
99999.97245917466
100000.06295781565
99999.85927598077
100000.30910546536
99999.32755431606
100001.4507325964
99996.88282983667
100006.67659680413
99985.7091530759
100030.64063405745
99933.96486040161
100144.07159329533
99678.35858160823
100747.63667259809
98150.92254560794
105080.62034590566
85587.54463844221
163675.00747747615
587002.8975375252
927904.1363669166
990795.5000766368
986049.1317227384
977417.3935534175
965112.9208749523
948235.8571190373
926415.8825924477
897637.5722236516
861896.7240129765
814546.1754171847