# vtk DataFile Version 2.0
JuliaCFD
ASCII
DATASET UNSTRUCTURED_GRID

POINTS 32898 float
0.0 0.0 -0.05
0.0125 0.0 -0.05
0.025 0.0 -0.05
0.0375 0.0 -0.05
0.05 0.0 -0.05
0.0625 0.0 -0.05
0.075 0.0 -0.05
0.0875 0.0 -0.05
0.1 0.0 -0.05
0.1125 0.0 -0.05
0.125 0.0 -0.05
0.1375 0.0 -0.05
0.15 0.0 -0.05
0.1625 0.0 -0.05
0.175 0.0 -0.05
0.1875 0.0 -0.05
0.2 0.0 -0.05
0.2125 0.0 -0.05
0.225 0.0 -0.05
0.2375 0.0 -0.05
0.25 0.0 -0.05
0.2625 0.0 -0.05
0.275 0.0 -0.05
0.2875 0.0 -0.05
0.3 0.0 -0.05
0.3125 0.0 -0.05
0.325 0.0 -0.05
0.3375 0.0 -0.05
0.35 0.0 -0.05
0.3625 0.0 -0.05
0.375 0.0 -0.05
0.3875 0.0 -0.05
0.4 0.0 -0.05
0.4125 0.0 -0.05
0.425 0.0 -0.05
0.4375 0.0 -0.05
0.45 0.0 -0.05
0.4625 0.0 -0.05
0.475 0.0 -0.05
0.4875 0.0 -0.05
0.5 0.0 -0.05
0.5125 0.0 -0.05
0.525 0.0 -0.05
0.5375 0.0 -0.05
0.55 0.0 -0.05
0.5625 0.0 -0.05
0.575 0.0 -0.05
0.5875 0.0 -0.05
0.6 0.0 -0.05
0.0 0.0125 -0.05
0.0125 0.0125 -0.05
0.025 0.0125 -0.05
0.0375 0.0125 -0.05
0.05 0.0125 -0.05
0.0625 0.0125 -0.05
0.075 0.0125 -0.05
0.0875 0.0125 -0.05
0.1 0.0125 -0.05
0.1125 0.0125 -0.05
0.125 0.0125 -0.05
0.1375 0.0125 -0.05
0.15 0.0125 -0.05
0.1625 0.0125 -0.05
0.175 0.0125 -0.05
0.1875 0.0125 -0.05
0.2 0.0125 -0.05
0.2125 0.0125 -0.05
0.225 0.0125 -0.05
0.2375 0.0125 -0.05
0.25 0.0125 -0.05
0.2625 0.0125 -0.05
0.275 0.0125 -0.05
0.2875 0.0125 -0.05
0.3 0.0125 -0.05
0.3125 0.0125 -0.05
0.325 0.0125 -0.05
0.3375 0.0125 -0.05
0.35 0.0125 -0.05
0.3625 0.0125 -0.05
0.375 0.0125 -0.05
0.3875 0.0125 -0.05
0.4 0.0125 -0.05
0.4125 0.0125 -0.05
0.425 0.0125 -0.05
0.4375 0.0125 -0.05
0.45 0.0125 -0.05
0.4625 0.0125 -0.05
0.475 0.0125 -0.05
0.4875 0.0125 -0.05
0.5 0.0125 -0.05
0.5125 0.0125 -0.05
0.525 0.0125 -0.05
0.5375 0.0125 -0.05
0.55 0.0125 -0.05
0.5625 0.0125 -0.05
0.575 0.0125 -0.05
0.5875 0.0125 -0.05
0.6 0.0125 -0.05
0.0 0.025 -0.05
0.0125 0.025 -0.05
0.025 0.025 -0.05
0.0375 0.025 -0.05
0.05 0.025 -0.05
0.0625 0.025 -0.05
0.075 0.025 -0.05
0.0875 0.025 -0.05
0.1 0.025 -0.05
0.1125 0.025 -0.05
0.125 0.025 -0.05
0.1375 0.025 -0.05
0.15 0.025 -0.05
0.1625 0.025 -0.05
0.175 0.025 -0.05
0.1875 0.025 -0.05
0.2 0.025 -0.05
0.2125 0.025 -0.05
0.225 0.025 -0.05
0.2375 0.025 -0.05
0.25 0.025 -0.05
0.2625 0.025 -0.05
0.275 0.025 -0.05
0.2875 0.025 -0.05
0.3 0.025 -0.05
0.3125 0.025 -0.05
0.325 0.025 -0.05
0.3375 0.025 -0.05
0.35 0.025 -0.05
0.3625 0.025 -0.05
0.375 0.025 -0.05
0.3875 0.025 -0.05
0.4 0.025 -0.05
0.4125 0.025 -0.05
0.425 0.025 -0.05
0.4375 0.025 -0.05
0.45 0.025 -0.05
0.4625 0.025 -0.05
0.475 0.025 -0.05
0.4875 0.025 -0.05
0.5 0.025 -0.05
0.5125 0.025 -0.05
0.525 0.025 -0.05
0.5375 0.025 -0.05
0.55 0.025 -0.05
0.5625 0.025 -0.05
0.575 0.025 -0.05
0.5875 0.025 -0.05
0.6 0.025 -0.05
0.0 0.0375 -0.05
0.0125 0.0375 -0.05
0.025 0.0375 -0.05
0.0375 0.0375 -0.05
0.05 0.0375 -0.05
0.0625 0.0375 -0.05
0.075 0.0375 -0.05
0.0875 0.0375 -0.05
0.1 0.0375 -0.05
0.1125 0.0375 -0.05
0.125 0.0375 -0.05
0.1375 0.0375 -0.05
0.15 0.0375 -0.05
0.1625 0.0375 -0.05
0.175 0.0375 -0.05
0.1875 0.0375 -0.05
0.2 0.0375 -0.05
0.2125 0.0375 -0.05
0.225 0.0375 -0.05
0.2375 0.0375 -0.05
0.25 0.0375 -0.05
0.2625 0.0375 -0.05
0.275 0.0375 -0.05
0.2875 0.0375 -0.05
0.3 0.0375 -0.05
0.3125 0.0375 -0.05
0.325 0.0375 -0.05
0.3375 0.0375 -0.05
0.35 0.0375 -0.05
0.3625 0.0375 -0.05
0.375 0.0375 -0.05
0.3875 0.0375 -0.05
0.4 0.0375 -0.05
0.4125 0.0375 -0.05
0.425 0.0375 -0.05
0.4375 0.0375 -0.05
0.45 0.0375 -0.05
0.4625 0.0375 -0.05
0.475 0.0375 -0.05
0.4875 0.0375 -0.05
0.5 0.0375 -0.05
0.5125 0.0375 -0.05
0.525 0.0375 -0.05
0.5375 0.0375 -0.05
0.55 0.0375 -0.05
0.5625 0.0375 -0.05
0.575 0.0375 -0.05
0.5875 0.0375 -0.05
0.6 0.0375 -0.05
0.0 0.05 -0.05
0.0125 0.05 -0.05
0.025 0.05 -0.05
0.0375 0.05 -0.05
0.05 0.05 -0.05
0.0625 0.05 -0.05
0.075 0.05 -0.05
0.0875 0.05 -0.05
0.1 0.05 -0.05
0.1125 0.05 -0.05
0.125 0.05 -0.05
0.1375 0.05 -0.05
0.15 0.05 -0.05
0.1625 0.05 -0.05
0.175 0.05 -0.05
0.1875 0.05 -0.05
0.2 0.05 -0.05
0.2125 0.05 -0.05
0.225 0.05 -0.05
0.2375 0.05 -0.05
0.25 0.05 -0.05
0.2625 0.05 -0.05
0.275 0.05 -0.05
0.2875 0.05 -0.05
0.3 0.05 -0.05
0.3125 0.05 -0.05
0.325 0.05 -0.05
0.3375 0.05 -0.05
0.35 0.05 -0.05
0.3625 0.05 -0.05
0.375 0.05 -0.05
0.3875 0.05 -0.05
0.4 0.05 -0.05
0.4125 0.05 -0.05
0.425 0.05 -0.05
0.4375 0.05 -0.05
0.45 0.05 -0.05
0.4625 0.05 -0.05
0.475 0.05 -0.05
0.4875 0.05 -0.05
0.5 0.05 -0.05
0.5125 0.05 -0.05
0.525 0.05 -0.05
0.5375 0.05 -0.05
0.55 0.05 -0.05
0.5625 0.05 -0.05
0.575 0.05 -0.05
0.5875 0.05 -0.05
0.6 0.05 -0.05
0.0 0.0625 -0.05
0.0125 0.0625 -0.05
0.025 0.0625 -0.05
0.0375 0.0625 -0.05
0.05 0.0625 -0.05
0.0625 0.0625 -0.05
0.075 0.0625 -0.05
0.0875 0.0625 -0.05
0.1 0.0625 -0.05
0.1125 0.0625 -0.05
0.125 0.0625 -0.05
0.1375 0.0625 -0.05
0.15 0.0625 -0.05
0.1625 0.0625 -0.05
0.175 0.0625 -0.05
0.1875 0.0625 -0.05
0.2 0.0625 -0.05
0.2125 0.0625 -0.05
0.225 0.0625 -0.05
0.2375 0.0625 -0.05
0.25 0.0625 -0.05
0.2625 0.0625 -0.05
0.275 0.0625 -0.05
0.2875 0.0625 -0.05
0.3 0.0625 -0.05
0.3125 0.0625 -0.05
0.325 0.0625 -0.05
0.3375 0.0625 -0.05
0.35 0.0625 -0.05
0.3625 0.0625 -0.05
0.375 0.0625 -0.05
0.3875 0.0625 -0.05
0.4 0.0625 -0.05
0.4125 0.0625 -0.05
0.425 0.0625 -0.05
0.4375 0.0625 -0.05
0.45 0.0625 -0.05
0.4625 0.0625 -0.05
0.475 0.0625 -0.05
0.4875 0.0625 -0.05
0.5 0.0625 -0.05
0.5125 0.0625 -0.05
0.525 0.0625 -0.05
0.5375 0.0625 -0.05
0.55 0.0625 -0.05
0.5625 0.0625 -0.05
0.575 0.0625 -0.05
0.5875 0.0625 -0.05
0.6 0.0625 -0.05
0.0 0.075 -0.05
0.0125 0.075 -0.05
0.025 0.075 -0.05
0.0375 0.075 -0.05
0.05 0.075 -0.05
0.0625 0.075 -0.05
0.075 0.075 -0.05
0.0875 0.075 -0.05
0.1 0.075 -0.05
0.1125 0.075 -0.05
0.125 0.075 -0.05
0.1375 0.075 -0.05
0.15 0.075 -0.05
0.1625 0.075 -0.05
0.175 0.075 -0.05
0.1875 0.075 -0.05
0.2 0.075 -0.05
0.2125 0.075 -0.05
0.225 0.075 -0.05
0.2375 0.075 -0.05
0.25 0.075 -0.05
0.2625 0.075 -0.05
0.275 0.075 -0.05
0.2875 0.075 -0.05
0.3 0.075 -0.05
0.3125 0.075 -0.05
0.325 0.075 -0.05
0.3375 0.075 -0.05
0.35 0.075 -0.05
0.3625 0.075 -0.05
0.375 0.075 -0.05
0.3875 0.075 -0.05
0.4 0.075 -0.05
0.4125 0.075 -0.05
0.425 0.075 -0.05
0.4375 0.075 -0.05
0.45 0.075 -0.05
0.4625 0.075 -0.05
0.475 0.075 -0.05
0.4875 0.075 -0.05
0.5 0.075 -0.05
0.5125 0.075 -0.05
0.525 0.075 -0.05
0.5375 0.075 -0.05
0.55 0.075 -0.05
0.5625 0.075 -0.05
0.575 0.075 -0.05
0.5875 0.075 -0.05
0.6 0.075 -0.05
0.0 0.0875 -0.05
0.0125 0.0875 -0.05
0.025 0.0875 -0.05
0.0375 0.0875 -0.05
0.05 0.0875 -0.05
0.0625 0.0875 -0.05
0.075 0.0875 -0.05
0.0875 0.0875 -0.05
0.1 0.0875 -0.05
0.1125 0.0875 -0.05
0.125 0.0875 -0.05
0.1375 0.0875 -0.05
0.15 0.0875 -0.05
0.1625 0.0875 -0.05
0.175 0.0875 -0.05
0.1875 0.0875 -0.05
0.2 0.0875 -0.05
0.2125 0.0875 -0.05
0.225 0.0875 -0.05
0.2375 0.0875 -0.05
0.25 0.0875 -0.05
0.2625 0.0875 -0.05
0.275 0.0875 -0.05
0.2875 0.0875 -0.05
0.3 0.0875 -0.05
0.3125 0.0875 -0.05
0.325 0.0875 -0.05
0.3375 0.0875 -0.05
0.35 0.0875 -0.05
0.3625 0.0875 -0.05
0.375 0.0875 -0.05
0.3875 0.0875 -0.05
0.4 0.0875 -0.05
0.4125 0.0875 -0.05
0.425 0.0875 -0.05
0.4375 0.0875 -0.05
0.45 0.0875 -0.05
0.4625 0.0875 -0.05
0.475 0.0875 -0.05
0.4875 0.0875 -0.05
0.5 0.0875 -0.05
0.5125 0.0875 -0.05
0.525 0.0875 -0.05
0.5375 0.0875 -0.05
0.55 0.0875 -0.05
0.5625 0.0875 -0.05
0.575 0.0875 -0.05
0.5875 0.0875 -0.05
0.6 0.0875 -0.05
0.0 0.1 -0.05
0.0125 0.1 -0.05
0.025 0.1 -0.05
0.0375 0.1 -0.05
0.05 0.1 -0.05
0.0625 0.1 -0.05
0.075 0.1 -0.05
0.0875 0.1 -0.05
0.1 0.1 -0.05
0.1125 0.1 -0.05
0.125 0.1 -0.05
0.1375 0.1 -0.05
0.15 0.1 -0.05
0.1625 0.1 -0.05
0.175 0.1 -0.05
0.1875 0.1 -0.05
0.2 0.1 -0.05
0.2125 0.1 -0.05
0.225 0.1 -0.05
0.2375 0.1 -0.05
0.25 0.1 -0.05
0.2625 0.1 -0.05
0.275 0.1 -0.05
0.2875 0.1 -0.05
0.3 0.1 -0.05
0.3125 0.1 -0.05
0.325 0.1 -0.05
0.3375 0.1 -0.05
0.35 0.1 -0.05
0.3625 0.1 -0.05
0.375 0.1 -0.05
0.3875 0.1 -0.05
0.4 0.1 -0.05
0.4125 0.1 -0.05
0.425 0.1 -0.05
0.4375 0.1 -0.05
0.45 0.1 -0.05
0.4625 0.1 -0.05
0.475 0.1 -0.05
0.4875 0.1 -0.05
0.5 0.1 -0.05
0.5125 0.1 -0.05
0.525 0.1 -0.05
0.5375 0.1 -0.05
0.55 0.1 -0.05
0.5625 0.1 -0.05
0.575 0.1 -0.05
0.5875 0.1 -0.05
0.6 0.1 -0.05
0.0 0.1125 -0.05
0.0125 0.1125 -0.05
0.025 0.1125 -0.05
0.0375 0.1125 -0.05
0.05 0.1125 -0.05
0.0625 0.1125 -0.05
0.075 0.1125 -0.05
0.0875 0.1125 -0.05
0.1 0.1125 -0.05
0.1125 0.1125 -0.05
0.125 0.1125 -0.05
0.1375 0.1125 -0.05
0.15 0.1125 -0.05
0.1625 0.1125 -0.05
0.175 0.1125 -0.05
0.1875 0.1125 -0.05
0.2 0.1125 -0.05
0.2125 0.1125 -0.05
0.225 0.1125 -0.05
0.2375 0.1125 -0.05
0.25 0.1125 -0.05
0.2625 0.1125 -0.05
0.275 0.1125 -0.05
0.2875 0.1125 -0.05
0.3 0.1125 -0.05
0.3125 0.1125 -0.05
0.325 0.1125 -0.05
0.3375 0.1125 -0.05
0.35 0.1125 -0.05
0.3625 0.1125 -0.05
0.375 0.1125 -0.05
0.3875 0.1125 -0.05
0.4 0.1125 -0.05
0.4125 0.1125 -0.05
0.425 0.1125 -0.05
0.4375 0.1125 -0.05
0.45 0.1125 -0.05
0.4625 0.1125 -0.05
0.475 0.1125 -0.05
0.4875 0.1125 -0.05
0.5 0.1125 -0.05
0.5125 0.1125 -0.05
0.525 0.1125 -0.05
0.5375 0.1125 -0.05
0.55 0.1125 -0.05
0.5625 0.1125 -0.05
0.575 0.1125 -0.05
0.5875 0.1125 -0.05
0.6 0.1125 -0.05
0.0 0.125 -0.05
0.0125 0.125 -0.05
0.025 0.125 -0.05
0.0375 0.125 -0.05
0.05 0.125 -0.05
0.0625 0.125 -0.05
0.075 0.125 -0.05
0.0875 0.125 -0.05
0.1 0.125 -0.05
0.1125 0.125 -0.05
0.125 0.125 -0.05
0.1375 0.125 -0.05
0.15 0.125 -0.05
0.1625 0.125 -0.05
0.175 0.125 -0.05
0.1875 0.125 -0.05
0.2 0.125 -0.05
0.2125 0.125 -0.05
0.225 0.125 -0.05
0.2375 0.125 -0.05
0.25 0.125 -0.05
0.2625 0.125 -0.05
0.275 0.125 -0.05
0.2875 0.125 -0.05
0.3 0.125 -0.05
0.3125 0.125 -0.05
0.325 0.125 -0.05
0.3375 0.125 -0.05
0.35 0.125 -0.05
0.3625 0.125 -0.05
0.375 0.125 -0.05
0.3875 0.125 -0.05
0.4 0.125 -0.05
0.4125 0.125 -0.05
0.425 0.125 -0.05
0.4375 0.125 -0.05
0.45 0.125 -0.05
0.4625 0.125 -0.05
0.475 0.125 -0.05
0.4875 0.125 -0.05
0.5 0.125 -0.05
0.5125 0.125 -0.05
0.525 0.125 -0.05
0.5375 0.125 -0.05
0.55 0.125 -0.05
0.5625 0.125 -0.05
0.575 0.125 -0.05
0.5875 0.125 -0.05
0.6 0.125 -0.05
0.0 0.1375 -0.05
0.0125 0.1375 -0.05
0.025 0.1375 -0.05
0.0375 0.1375 -0.05
0.05 0.1375 -0.05
0.0625 0.1375 -0.05
0.075 0.1375 -0.05
0.0875 0.1375 -0.05
[...]
CELL_DATA 16128
SCALARS P float 1
LOOKUP_TABLE default
100000.00017809897
99999.99895218217
100000.00167383355
99999.99597175396
100000.00744217153
99999.9849952417
100000.02817694937
99999.946185448
100000.10082422651
99999.81002863553
100000.35835309299
99999.31555011409
100001.33095931131
99997.3364722764
100005.5320107561
99987.95866581885
100027.5429128131
99933.69564059885
100166.93306229061
99565.27242048441
101177.18614147195
96842.39149230794
109258.21931678368
76508.90200850571
216001.0094689821
672677.0966687608
1.0178912539947099e6
1.0511058580636755e6
1.0586613197829523e6
1.0713074508065972e6
1.0822430164488351e6
1.0931032830231204e6
1.1034244354007111e6
1.1133407275099594e6
1.1227950717467437e6
1.1318193939512165e6
1.1403540809535289e6
1.1484569916258384e6
1.1559721929425464e6
1.1630916616702161e6
1.1693854163361995e6
1.175487718636827e6
1.1801637131175413e6
1.1854322587911533e6
1.187616335338605e6
1.1930180294705478e6
1.19045266597984e6
1.199421312478367e6
100000.00025061642
99999.99888395697
100000.00190802054
99999.99559025702
100000.00829544723
99999.98341847962
100000.03128899528
99999.94038111212
100000.1116558552
99999.7903682529
100000.39334139926
99999.25513766312
100001.43138795592
99997.17875419768
100005.7580997545
99987.69181824184
100027.70472529465
99934.13915180009
100164.56578622751
99573.0732181135
101155.72533300945
96895.72581369581
109121.30202805497
76751.77832638704
213519.1738995551
670094.8580926221
1.0200460768764121e6
1.0557574260803722e6
1.06367764227403e6
1.0767255164185609e6
1.087826182530936e6
1.0988031365648261e6
1.109212246431896e6
1.1192142150804226e6
1.1287592431957314e6
1.1378823118219315e6
1.1465231896067343e6
1.1547379259358537e6
1.1623671657836516e6
1.169599810562919e6
1.1760000124769188e6
1.1821998074689195e6
1.186953264190648e6
1.1922855389504954e6
1.1944895432047246e6
1.1999190368700332e6
1.1972648720788432e6
1.206332777078605e6
99999.99957771515
100000.00015464396
99999.99980697487
99999.99935482698
100000.0018463147
99999.9947742438
100000.01155783318
99999.97498624866
100000.0511406038
99999.89657747946
100000.20688439609
99999.58317075105
100000.8534870357
99998.19932605565
100003.95115325252
99990.90676029731
100021.95149139577
99944.55900680576
100145.40368611728
99609.20541536497
101084.29542410385
97038.47881873391
108778.42741137966
77373.34143532933
206307.53800092347
658094.6503159642
1.0134923481356153e6
1.0527554583230035e6
1.0597136042474415e6
1.0726160284119183e6
1.0834834574319974e6
1.0942866658957873e6
1.1045266954452796e6
1.1143622439132e6
1.12373716862349e6
1.1326851898896014e6
1.141147363179714e6
1.1491806807232236e6
1.156630521373111e6
1.163686169845489e6
1.1699210096990983e6
1.1759632185790534e6
1.1805843542749616e6
1.1857966910866755e6
1.187917330249518e6
1.1932953473698911e6
1.1905628570126472e6
1.1997870569337602e6
99999.99867329716
100000.00187138325
99999.99697954034
100000.00441344832
99999.99320106031
100000.00994966678
99999.98527537058
100000.02088885618
99999.97123899328
100000.03605432807
99999.9634836066
100000.00861129406
100000.10897806466
99999.50579154394
100001.6498616461
99994.99122840277
100014.62461014776
99957.96662814326
100120.1971399354
99658.51774172128
100981.42822496122
97257.91780795086
108214.91843716936
78488.1988356891
195800.9736100673
641438.1882100842
1.0071844997299563e6
1.0530194851833992e6
1.0592100885474076e6
1.0723984412938005e6
1.0832843933418978e6
1.0941159238214712e6
1.104354988560352e6
1.1141823561477987e6
1.1235468986715882e6
1.132487503772847e6
1.1409491120174264e6
1.148989933220479e6
1.15645857394015e6
1.163542068868062e6
1.169818181550211e6
1.175906980926288e6
1.1805864509827916e6
1.1858553948614243e6
1.1880254078996775e6
1.1934738961132816e6
1.1906792680989397e6
1.2001558601524462e6
99999.99767225387
100000.0037649908
99999.99387092804
100000.0099541924
99999.98376440142
100000.02645082907
99999.95680047717
100000.07043546502
99999.88529611111
100000.1855945617
99999.70320442783
100000.4628116022
99999.31413323243
100000.90416899833
99999.17035417286
99999.44703814322
100006.46167386626
99973.38498183846
100089.87101471094
99721.26186329557
100841.78016978114
97574.09872334384
107364.38427580503
80292.30468738364
182146.996219984
618244.2060213573
996799.1672990117
1.0516147021278283e6
1.0563809109784751e6
1.0695778222983652e6
1.0802245605821582e6
1.090870936367763e6
1.100917017197948e6
1.1105526628699452e6
1.119723787044921e6
1.1284692097548242e6
1.1367356065283117e6
1.1445811181274566e6
1.151858825989787e6
1.1587536446629819e6
1.1648524261036003e6
1.170767197315798e6
1.1752931058087817e6
1.180414555961568e6
1.1824565638555782e6
1.1878299191955521e6
1.1848569493928633e6
1.194594870467509e6
99999.99672092091
100000.00554604827
99999.99095801667
100000.0151102381
99999.97503041748
100000.04163459915
99999.9307391763
100000.11556096344
99999.8073533625
100000.32079236628
99999.46826785257
100000.87307153887
99998.59330156179
100002.18348103517
99996.86633168139
100003.6902953172
99998.40053571934
99989.36540487461
100056.47163927909
99795.02806427178
100666.67939223273
97993.94788488287
106194.58985626222
82935.73851019534
166155.3975056661
589167.2810264213
983272.3808174839
1.050547373482445e6
1.0538501255141697e6
1.0671987337126497e6
1.0777043357253491e6
1.0882435855930971e6
1.0981625698937136e6
1.1076647039773515e6
1.1166985153871991e6
1.1253062642450589e6
1.1334394389101795e6
1.1411582051337974e6
1.148322139404875e6
1.1551151488379173e6
1.1611343028948847e6
1.1669833199462912e6
1.1714721131869066e6
1.176569541107731e6
1.178597341349817e6
1.1840148909931844e6
1.1809140716233086e6
1.1910280883475041e6
99999.99594120916
100000.0069756275
99999.9886330256
100000.0191708433
99999.96822122629
100000.05333992923
99999.91086164559
100000.14964139966
99999.7490135564
100000.42129176794
99999.29436369165
100001.17680225916
99998.0561990303
100003.15147033603
99995.07415820862
100007.13368936132
99991.45973495489
100004.156303144
100022.9381140211
99875.0402938381
100463.44126277903
98510.74110811735
104712.29836337581
86509.40807688503
148587.83225966844
554016.481573389
965246.7812754208
1.048781877903722e6
1.0504897972826157e6
1.0638479152245063e6
1.0741091601774632e6
1.0844315703356643e6
1.0941206636480447e6
1.1033853010939367e6
1.1121752517298695e6
1.1205332068038925e6
1.1284135583895342e6
1.1358763398656112e6
1.1427859934556358e6
1.1493231833828185e6
1.1550941034929578e6
1.160692823159325e6
1.1649456910752617e6
1.1698120847430439e6
1.1716155129658284e6
1.176901768639604e6
1.1734939295902657e6
1.1840027016831124e6
99999.99540809945
100000.00791047393
99999.98712962336
100000.02171824404
99999.96405113144
100000.06030911308
99999.89936411905
100000.1687965176
99999.7171514958
100000.47481323924
99999.20357240952
100001.3339637475
99997.77607719832
100003.67281537941
99994.04651373273
100009.29989496084
99986.55279669799
100015.98343941751
99992.77826882458
99954.30647040039
100246.24712597512
99097.83183035984
102988.11400159716
90953.87696888548
130454.06216993342
513111.6675124482
942087.5882689252
1.0464373279320665e6
1.0468497012134445e6
1.0601447488918942e6
1.0701852889003246e6
1.0802839976785798e6
1.089737923581837e6
1.0987541935190663e6
1.107287102072762e6
1.1153806585279256e6
1.1229942703133945e6
1.1301903297508557e6
1.136841811287815e6
1.143130774365389e6
1.1486786001492504e6
1.154075982068942e6
1.1581708964260344e6
1.1629161022390395e6
1.1646256590557368e6
1.1699334537914537e6
1.166311180594235e6
1.1773748141893144e6
99999.99513938632
100000.00832473976
99999.98648617268
100000.02269830424
99999.96259807552
100000.06243059103
99999.89641327324
100000.1727552335
99999.71226349298
100000.48031873329
99999.19827287356
100001.33881837141
99997.7670376434
100003.71281871993
99993.86873505969
100009.98032224974
99984.19179857367
100023.59473149323
99969.09607676536
100025.20934206121
100034.62991415318
99707.60647637384
101162.07298066764
95998.1660525288
112925.68663744837
466892.76540548407
912714.0196969513
1.042956157883705e6
1.0428004919653689e6
1.055810878164492e6
1.0656053448057994e6
1.0754098564019424e6
1.0845633180570947e6
1.093258613058132e6
1.1014556229457716e6
1.1091968338442731e6
1.1164438608001587e6
1.1232574302374392e6
1.1295133086099336e6
1.135387947986676e6
1.140507710346099e6
1.1454520297226943e6
1.1490775408975754e6
1.1533401827762246e6
1.1545338335325713e6
1.159475760109344e6
1.155210474230459e6
1.1668123239575063e6
99999.99510075878
100000.00830116721
99999.98655925281
100000.02239850361
99999.96333363747
100000.06070145592
99999.90017334133
100000.16488780078
99999.72823696316
100000.44877665694
99999.25905421968
100001.22510163163
99997.97194338689
100003.36452638691
99994.3997293604
100009.36047518415
99984.2269566493
100026.78437977443
99953.58225326335
100081.28195352493
99850.25620525329
100275.5611030944
99433.14467725845
101116.85015177188
97346.54398650133
416190.54719048867
876106.0840441695
1.0377528099937743e6
1.0385284433125294e6
1.0509579754132777e6
1.060525136982699e6
1.0699918008868464e6
1.078807410740271e6
1.0871367476216387e6
1.0949483286971822e6
1.1022831879536472e6
1.10910704121759e6
1.115482434124089e6
1.1212942659915232e6
1.1267234198055456e6
1.1314168331929229e6
1.1359608483138978e6
1.139245865898048e6
1.143239792911368e6
1.144230138338049e6
1.1491635645199867e6
1.1445876019334e6
1.1570214225156775e6
99999.99522523029
100000.00799151247
99999.98708927177
100000.02132633801
99999.96533211737
100000.05685811021
99999.90743967176
100000.15112389803
99999.75415931134
100000.4002003181
99999.34941048312
100001.05892258944
99998.2723289595
100002.83690928586
99995.28044442051
100008.03118954464
99985.76908448512
100026.64902256257
99945.77782263978
100119.11296893375
99711.83068262466
100732.07443562141
98024.01551388638
105567.76820757422
85125.56713767284
362240.53557111055
831226.5797890776
1.0298519021806445e6
1.0341108479203122e6
1.0455403603697923e6
1.054896411532843e6
1.0639643388054974e6
1.072385434063701e6
1.0802809578372443e6
1.0876284862198764e6
1.0944636103129312e6
1.1007505540771058e6
1.1065453047558086e6
1.111727850273375e6
1.116464884979756e6
1.1203920952655324e6
1.1240722618650126e6
1.1263712875049128e6
1.129269342361177e6
1.1289666404740661e6
1.1327882672183465e6
1.1265726198369479e6
1.1396032340790678e6
99999.99544127472
100000.00755609717
99999.98780263723
100000.0200142896
99999.9676195627
100000.05273384144
99999.9148019628
100000.13784003633
99999.77813126329
100000.35679211542
99999.42798518889
100000.91708389981
99998.52630510113
100002.38978710891
99996.04224897875
100006.816532392
99987.43614689293
100025.30503921547
99943.12823094556
100139.37449640193
99630.02545332143
101019.54518780246
97129.85077026291
108546.4961460554
77517.72425592132
306728.41119628004
777235.8209699787
1.0179407148895437e6
1.0296521087375479e6
1.039592043474175e6
1.048763304225036e6
1.0573800570680355e6
1.0653563514004697e6
1.072758175394846e6
1.0795735556536808e6
1.0858325751440926e6
1.0914996899819386e6
1.09662899528383e6
1.1011062844184325e6
1.1051025787142643e6
1.1082787159508038e6
1.1112167448401218e6
1.1128456174373724e6
1.115180040710907e6
1.11448430912572e6
1.1181720383832345e6
1.11161002362073e6
1.1257496308359548e6
99999.99570009012
100000.00710242838
99999.98851715864
100000.01881396402
99999.9695530641
100000.04954091275
99999.91998967569
100000.12932642584
99999.79203084979
100000.33398395435
99999.46540449327
100000.85552680012
99998.62749115817
100002.2244739076
99996.3076826139
100006.41160825688
99987.98639030437
100024.83904936654
99942.52345035554
100145.16836174836
99606.97323400655
101104.7519030341
96875.54306612174
109411.66984241414
75297.32686651159
251743.13849774943
713697.8047830157
1.0003185787958681e6
1.0251646667557145e6
1.0331475472243906e6
1.0421399107689554e6
1.0502527805496298e6
1.0577264257555464e6
1.0645650805671471e6
1.0707638104114116e6
1.0763416490006612e6
1.0812534705911768e6
1.0855361785429385e6
1.089053392218896e6
1.0919390583805533e6
1.093800250898433e6
1.0951453124640344e6
1.0947686830101435e6
1.0946419792941627e6
1.0906702604172959e6
1.090990598980337e6
1.0794273638822245e6
1.0934713869718453e6
99999.99599142204
100000.00664724533
99999.98920846096
100000.01776274589
99999.97107500047
100000.04737407833
99999.92283709791
100000.12590354819
99999.795192227
100000.33324954714
99999.45831381867
100000.88198116988
99998.55810842986
100002.38143014454
99995.98571351178
100007.01688131531
99986.98402707106
100026.16202937356
99942.07452321844
100140.05006589436
99635.74538662662
100997.0711367064
97238.36811219565
108204.01837673197
78317.18141439474
199624.77815535187
640793.564835895
974947.0097549312
1.0204928040945645e6
1.0262951221674231e6
1.0350623507093105e6
1.0426267111626895e6
1.0495408356779246e6
1.0557522560422332e6
1.061259274637354e6
1.066069231194891e6
1.0701280325758948e6
1.0734597447867468e6
1.0759207850968188e6
1.0776354431878221e6
1.0782293387244109e6
1.0782248020389022e6
1.076537497263204e6
1.0751407552861099e6
1.0703733896004763e6
1.0697998278764258e6
1.0582326790969952e6
1.0715182600193033e6
99999.99634085322
100000.00612021722
99999.99000495064
100000.0165898402
99999.9727118814
100000.04519446255
99999.92535661913
100000.12369855912
99999.7950068332
100000.34060826576
99999.43292878594
100000.94783180927
99998.40710251355
100002.70091319503
99995.35527146209
100008.16600953054
99985.14498832427
100028.35166073033
99942.3158434129
100126.14877111831
99703.12789515677
100747.00811201976
98049.73526838966
105495.78392436399
85475.26439563143
153052.64905984103
559559.5020269359
939479.3905942768
1.0151041747798795e6
1.0191583091959307e6
1.0275589700588796e6
1.0345408833029914e6
1.040837338080705e6
1.046356824390614e6
1.05109139803697e6
1.05503041138445e6
1.058098090560948e6
1.0602847902978961e6
1.0613980619588855e6
1.0614832098596692e6
1.0600345784810144e6
1.0573678698459012e6
1.0520038450374e6
1.0454875582645367e6
1.0328257380911121e6
1.0222134890767819e6
992865.6556298089
999354.9217270166
99999.99678890244
100000.005410993
99999.99110701802
100000.0148739276
99999.97528673171
100000.04136731462
99999.93075008619
100000.11646181057
99999.80361183616
100000.33261761387
99999.43429530585
100000.96712116827
99998.33709172737
100002.87907458397
99994.97359471652
100008.86678548246
99984.14642400635
100028.84166103895
99946.2795924382
100103.06713463043
99794.32955108522
100429.68374746121
99055.77044084796
102228.23039116395
94661.64348245534
115107.64888008806
472183.3354484175
891373.149651105
1.0078147150359389e6
1.0118781419599887e6
1.0196523114831891e6
1.0260381769685777e6
1.0316669087444608e6
1.0364412254671621e6
1.0403384152510256e6
1.0433285742453366e6
1.0453132840170775e6
1.0462503570949748e6
1.0459122373450325e6
1.0442898734884763e6
1.0408516437847615e6
1.0358359395413616e6
1.0279098070677178e6
1.0184237026738868e6
1.0036721437754886e6
988818.1677568719
960690.2803088715
927643.9325199609
99999.99736075602
100000.00444076462
99999.99266207968
100000.01229251447
99999.97945052272
100000.03456325573
99999.94169280394
100000.09883960166
99999.8316639135
100000.28818872743
99999.50394139093
100000.85859940552
99998.50581337686
100002.61309152094
99995.41250916063
100008.06777907135
99985.8368059558
100024.65370914208
99957.90402215539
100068.78563772066
99897.22697346513
100117.36062549669
99988.65575610987
99383.32358109643
103052.64538842226
88953.5915147679
382335.0541749929
828284.8070377639
996506.5316642697
1.0045541941472036e6
1.0113567466594037e6
1.0171579059304262e6
1.0220822224881996e6
1.0260694853463068e6
1.0290744275322147e6
1.0310447742277482e6
1.0318507524450454e6
1.0314024704543978e6
1.0294037175635038e6
1.0257264158793796e6
1.019655600773905e6
1.0110381491894071e6
997884.4182097694
979947.0114357123
950506.7163075387
907689.1259314871
822281.0922827607
671001.2511632051
99999.99804085385
100000.00322484101
99999.99465360986
100000.00884745817
99999.98524848752
100000.02461040796
99999.95867007886
100000.06962926146
99999.881970399
100000.20104180614
99999.65553858629
100000.59317560618
99998.9739512439
100001.77906621246
99996.91853517781
100005.29649833325
99991.071127038
100014.40859023135
99978.88940250668
100023.35193189385
100001.5359921952
99863.11736120773
100642.3119603794
97647.26741731574
108029.76647710122
76511.43985543598
295027.27655024495
748975.0089093936
978119.4651407835
997193.3279028747
1.0027161927207891e6
1.007953460495414e6
1.0121524895332531e6
1.0153255977383578e6
1.0174036241435794e6
1.0183119976576633e6
1.0178900327122486e6
1.0159978939209094e6
1.0122792134995864e6
1.0064970975933129e6
997799.4383832854
985768.6668201387
968122.9911586541
943933.6416411044
906255.894962693
851703.511215687
756672.3481236123
601117.0546808844
99999.99876559687
100000.00189307796
99999.99686302345
100000.00494648013
99999.99195385232
100000.01283813764
99999.97926833652
100000.03324175741
99999.94646874987
100000.08594286194
99999.86202524218
100000.22047195448
99999.65050197773
100000.54393845295
99999.1852908513
100001.11673362555
99998.80720834361
100000.05888388466
100005.50473165065
99974.22087487484
100091.39014463626
99703.32453188057
100916.42865244111
97244.91093217491
108471.19106878756
76828.73748054031
215727.18211099552
654188.2138247531
948953.9837869278
989605.1721651896
993857.5092585466
998508.8026571242
1.001967793124522e6
1.00430938679619e6
1.005443019437924e6
1.0052737429192716e6
1.0036092071667034e6
1.000270124384579e6
994843.8773687346
987012.578339627
975828.5864928568
960726.8703408445
939319.7654053067
910546.6246940285
867850.8627764542
808987.2402979903
715005.4410957039
582395.2443484023
99999.99943947115
100000.00065336344
99999.99893200294
100000.0012816611
99999.99829009746
100000.00166039227
99999.99894554395
99999.99827771199
100000.00884130868
99999.97393666698
100000.06421646744
99999.85346921787
100000.3196990268
99999.31936655885
100001.42980495226
99997.00855969037
100006.27874301201
99986.67439348534
100028.77161564608
99936.26099890085
100145.26595879489
99656.78413702175
100838.13747519544
97894.72972309594
105606.2667411964
85814.21120011825
149777.16203373726
546837.0999823025
904791.4821682901
980966.0749799962
984965.7028202417
988918.8191936419
991625.5731468019
993128.0803884862
993319.0698217828
992083.8350707629
989205.3131726149
984473.3035681759
977438.7976143659
967738.6861960572
954383.6004757591
936783.4897621656
912583.826544582
880969.074341629
835929.1038152076
777160.2310490542
688864.5662026899
578357.4593097424
99999.99996821032
99999.99971257123
100000.00050104232
99999.99855175245
100000.00295814766
99999.99355107831
100000.01301046998
99999.97368990487
100000.05196091604
99999.89789066662
100000.19888344021
99999.61399862153
100000.74666402247
99998.55758528304
100002.78478720342
99994.6213848698
100010.39661754527
99979.87942439759
100038.96176838929
99924.54364916318
100145.641606807
99720.52186971015
100527.23154286481
99034.2991929452
101679.995734914
97586.633127162
102771.83522619012
432479.5702107197
841024.0564467962
968967.6638038461
976122.8367307946
979235.6789008379
981200.3096515446
981876.8961647718
981150.4632917509
978888.30719321
974859.521617483
968833.9138038172
960346.5185844774
949022.9480165165
933880.6652989835
914384.7409924935
888317.3905141293
855226.1767260109
809800.0650964703
753201.561665586
672660.3392319838
579199.3505985565
100000.00029350401
99999.99919341407
100000.00135637545
99999.99716619929
100000.00520337363
99999.98993261789
100000.01879238084
99999.96452749145
100000.0662568885
99999.87601316394
100000.23128866492
99999.56845213818
100000.80446528715
99998.50069257947
100002.7914351061
99994.81291101062
100009.59783070009
99982.38361967994
100031.83689235858
99944.075906385
100092.78332987653
99863.65127446681
100136.31195025428
100108.10140028349
98658.5387348352
106134.31013747289
78863.8269946066
319905.5212040974
754369.5814139005
949367.1150295682
967157.3806071209
969474.063653162
970745.2103109519
970638.0905201777
969042.886136362
965818.9577483815