# vtk DataFile Version 2.0
JuliaCFD
ASCII
DATASET UNSTRUCTURED_GRID

POINTS 32898 float
0.0 0.0 -0.05
0.0125 0.0 -0.05
0.025 0.0 -0.05
0.0375 0.0 -0.05
0.05 0.0 -0.05
0.0625 0.0 -0.05
0.075 0.0 -0.05
0.0875 0.0 -0.05
0.1 0.0 -0.05
0.1125 0.0 -0.05
0.125 0.0 -0.05
0.1375 0.0 -0.05
0.15 0.0 -0.05
0.1625 0.0 -0.05
0.175 0.0 -0.05
0.1875 0.0 -0.05
0.2 0.0 -0.05
0.2125 0.0 -0.05
0.225 0.0 -0.05
0.2375 0.0 -0.05
0.25 0.0 -0.05
0.2625 0.0 -0.05
0.275 0.0 -0.05
0.2875 0.0 -0.05
0.3 0.0 -0.05
0.3125 0.0 -0.05
0.325 0.0 -0.05
0.3375 0.0 -0.05
0.35 0.0 -0.05
0.3625 0.0 -0.05
0.375 0.0 -0.05
0.3875 0.0 -0.05
0.4 0.0 -0.05
0.4125 0.0 -0.05
0.425 0.0 -0.05
0.4375 0.0 -0.05
0.45 0.0 -0.05
0.4625 0.0 -0.05
0.475 0.0 -0.05
0.4875 0.0 -0.05
0.5 0.0 -0.05
0.5125 0.0 -0.05
0.525 0.0 -0.05
0.5375 0.0 -0.05
0.55 0.0 -0.05
0.5625 0.0 -0.05
0.575 0.0 -0.05
0.5875 0.0 -0.05
0.6 0.0 -0.05
0.0 0.0125 -0.05
0.0125 0.0125 -0.05
0.025 0.0125 -0.05
0.0375 0.0125 -0.05
0.05 0.0125 -0.05
0.0625 0.0125 -0.05
0.075 0.0125 -0.05
0.0875 0.0125 -0.05
0.1 0.0125 -0.05
0.1125 0.0125 -0.05
0.125 0.0125 -0.05
0.1375 0.0125 -0.05
0.15 0.0125 -0.05
0.1625 0.0125 -0.05
0.175 0.0125 -0.05
0.1875 0.0125 -0.05
0.2 0.0125 -0.05
0.2125 0.0125 -0.05
0.225 0.0125 -0.05
0.2375 0.0125 -0.05
0.25 0.0125 -0.05
0.2625 0.0125 -0.05
0.275 0.0125 -0.05
0.2875 0.0125 -0.05
0.3 0.0125 -0.05
0.3125 0.0125 -0.05
0.325 0.0125 -0.05
0.3375 0.0125 -0.05
0.35 0.0125 -0.05
0.3625 0.0125 -0.05
0.375 0.0125 -0.05
0.3875 0.0125 -0.05
0.4 0.0125 -0.05
0.4125 0.0125 -0.05
0.425 0.0125 -0.05
0.4375 0.0125 -0.05
0.45 0.0125 -0.05
0.4625 0.0125 -0.05
0.475 0.0125 -0.05
0.4875 0.0125 -0.05
0.5 0.0125 -0.05
0.5125 0.0125 -0.05
0.525 0.0125 -0.05
0.5375 0.0125 -0.05
0.55 0.0125 -0.05
0.5625 0.0125 -0.05
0.575 0.0125 -0.05
0.5875 0.0125 -0.05
0.6 0.0125 -0.05
0.0 0.025 -0.05
0.0125 0.025 -0.05
0.025 0.025 -0.05
0.0375 0.025 -0.05
0.05 0.025 -0.05
0.0625 0.025 -0.05
0.075 0.025 -0.05
0.0875 0.025 -0.05
0.1 0.025 -0.05
0.1125 0.025 -0.05
0.125 0.025 -0.05
0.1375 0.025 -0.05
0.15 0.025 -0.05
0.1625 0.025 -0.05
0.175 0.025 -0.05
0.1875 0.025 -0.05
0.2 0.025 -0.05
0.2125 0.025 -0.05
0.225 0.025 -0.05
0.2375 0.025 -0.05
0.25 0.025 -0.05
0.2625 0.025 -0.05
0.275 0.025 -0.05
0.2875 0.025 -0.05
0.3 0.025 -0.05
0.3125 0.025 -0.05
0.325 0.025 -0.05
0.3375 0.025 -0.05
0.35 0.025 -0.05
0.3625 0.025 -0.05
0.375 0.025 -0.05
0.3875 0.025 -0.05
0.4 0.025 -0.05
0.4125 0.025 -0.05
0.425 0.025 -0.05
0.4375 0.025 -0.05
0.45 0.025 -0.05
0.4625 0.025 -0.05
0.475 0.025 -0.05
0.4875 0.025 -0.05
0.5 0.025 -0.05
0.5125 0.025 -0.05
0.525 0.025 -0.05
0.5375 0.025 -0.05
0.55 0.025 -0.05
0.5625 0.025 -0.05
0.575 0.025 -0.05
0.5875 0.025 -0.05
0.6 0.025 -0.05
0.0 0.0375 -0.05
0.0125 0.0375 -0.05
0.025 0.0375 -0.05
0.0375 0.0375 -0.05
0.05 0.0375 -0.05
0.0625 0.0375 -0.05
0.075 0.0375 -0.05
0.0875 0.0375 -0.05
0.1 0.0375 -0.05
0.1125 0.0375 -0.05
0.125 0.0375 -0.05
0.1375 0.0375 -0.05
0.15 0.0375 -0.05
0.1625 0.0375 -0.05
0.175 0.0375 -0.05
0.1875 0.0375 -0.05
0.2 0.0375 -0.05
0.2125 0.0375 -0.05
0.225 0.0375 -0.05
0.2375 0.0375 -0.05
0.25 0.0375 -0.05
0.2625 0.0375 -0.05
0.275 0.0375 -0.05
0.2875 0.0375 -0.05
0.3 0.0375 -0.05
0.3125 0.0375 -0.05
0.325 0.0375 -0.05
0.3375 0.0375 -0.05
0.35 0.0375 -0.05
0.3625 0.0375 -0.05
0.375 0.0375 -0.05
0.3875 0.0375 -0.05
0.4 0.0375 -0.05
0.4125 0.0375 -0.05
0.425 0.0375 -0.05
0.4375 0.0375 -0.05
0.45 0.0375 -0.05
0.4625 0.0375 -0.05
0.475 0.0375 -0.05
0.4875 0.0375 -0.05
0.5 0.0375 -0.05
0.5125 0.0375 -0.05
0.525 0.0375 -0.05
0.5375 0.0375 -0.05
0.55 0.0375 -0.05
0.5625 0.0375 -0.05
0.575 0.0375 -0.05
0.5875 0.0375 -0.05
0.6 0.0375 -0.05
0.0 0.05 -0.05
0.0125 0.05 -0.05
0.025 0.05 -0.05
0.0375 0.05 -0.05
0.05 0.05 -0.05
0.0625 0.05 -0.05
0.075 0.05 -0.05
0.0875 0.05 -0.05
0.1 0.05 -0.05
0.1125 0.05 -0.05
0.125 0.05 -0.05
0.1375 0.05 -0.05
0.15 0.05 -0.05
0.1625 0.05 -0.05
0.175 0.05 -0.05
0.1875 0.05 -0.05
0.2 0.05 -0.05
0.2125 0.05 -0.05
0.225 0.05 -0.05
0.2375 0.05 -0.05
0.25 0.05 -0.05
0.2625 0.05 -0.05
0.275 0.05 -0.05
0.2875 0.05 -0.05
0.3 0.05 -0.05
0.3125 0.05 -0.05
0.325 0.05 -0.05
0.3375 0.05 -0.05
0.35 0.05 -0.05
0.3625 0.05 -0.05
0.375 0.05 -0.05
0.3875 0.05 -0.05
0.4 0.05 -0.05
0.4125 0.05 -0.05
0.425 0.05 -0.05
0.4375 0.05 -0.05
0.45 0.05 -0.05
0.4625 0.05 -0.05
0.475 0.05 -0.05
0.4875 0.05 -0.05
0.5 0.05 -0.05
0.5125 0.05 -0.05
0.525 0.05 -0.05
0.5375 0.05 -0.05
0.55 0.05 -0.05
0.5625 0.05 -0.05
0.575 0.05 -0.05
0.5875 0.05 -0.05
0.6 0.05 -0.05
0.0 0.0625 -0.05
0.0125 0.0625 -0.05
0.025 0.0625 -0.05
0.0375 0.0625 -0.05
0.05 0.0625 -0.05
0.0625 0.0625 -0.05
0.075 0.0625 -0.05
0.0875 0.0625 -0.05
0.1 0.0625 -0.05
0.1125 0.0625 -0.05
0.125 0.0625 -0.05
0.1375 0.0625 -0.05
0.15 0.0625 -0.05
0.1625 0.0625 -0.05
0.175 0.0625 -0.05
0.1875 0.0625 -0.05
0.2 0.0625 -0.05
0.2125 0.0625 -0.05
0.225 0.0625 -0.05
0.2375 0.0625 -0.05
0.25 0.0625 -0.05
0.2625 0.0625 -0.05
0.275 0.0625 -0.05
0.2875 0.0625 -0.05
0.3 0.0625 -0.05
0.3125 0.0625 -0.05
0.325 0.0625 -0.05
0.3375 0.0625 -0.05
0.35 0.0625 -0.05
0.3625 0.0625 -0.05
0.375 0.0625 -0.05
0.3875 0.0625 -0.05
0.4 0.0625 -0.05
0.4125 0.0625 -0.05
0.425 0.0625 -0.05
0.4375 0.0625 -0.05
0.45 0.0625 -0.05
0.4625 0.0625 -0.05
0.475 0.0625 -0.05
0.4875 0.0625 -0.05
0.5 0.0625 -0.05
0.5125 0.0625 -0.05
0.525 0.0625 -0.05
0.5375 0.0625 -0.05
0.55 0.0625 -0.05
0.5625 0.0625 -0.05
0.575 0.0625 -0.05
0.5875 0.0625 -0.05
0.6 0.0625 -0.05
0.0 0.075 -0.05
0.0125 0.075 -0.05
0.025 0.075 -0.05
0.0375 0.075 -0.05
0.05 0.075 -0.05
0.0625 0.075 -0.05
0.075 0.075 -0.05
0.0875 0.075 -0.05
0.1 0.075 -0.05
0.1125 0.075 -0.05
0.125 0.075 -0.05
0.1375 0.075 -0.05
0.15 0.075 -0.05
0.1625 0.075 -0.05
0.175 0.075 -0.05
0.1875 0.075 -0.05
0.2 0.075 -0.05
0.2125 0.075 -0.05
0.225 0.075 -0.05
0.2375 0.075 -0.05
0.25 0.075 -0.05
0.2625 0.075 -0.05
0.275 0.075 -0.05
0.2875 0.075 -0.05
0.3 0.075 -0.05
0.3125 0.075 -0.05
0.325 0.075 -0.05
0.3375 0.075 -0.05
0.35 0.075 -0.05
0.3625 0.075 -0.05
0.375 0.075 -0.05
0.3875 0.075 -0.05
0.4 0.075 -0.05
0.4125 0.075 -0.05
0.425 0.075 -0.05
0.4375 0.075 -0.05
0.45 0.075 -0.05
0.4625 0.075 -0.05
0.475 0.075 -0.05
0.4875 0.075 -0.05
0.5 0.075 -0.05
0.5125 0.075 -0.05
0.525 0.075 -0.05
0.5375 0.075 -0.05
0.55 0.075 -0.05
0.5625 0.075 -0.05
0.575 0.075 -0.05
0.5875 0.075 -0.05
0.6 0.075 -0.05
0.0 0.0875 -0.05
0.0125 0.0875 -0.05
0.025 0.0875 -0.05
0.0375 0.0875 -0.05
0.05 0.0875 -0.05
0.0625 0.0875 -0.05
0.075 0.0875 -0.05
0.0875 0.0875 -0.05
0.1 0.0875 -0.05
0.1125 0.0875 -0.05
0.125 0.0875 -0.05
0.1375 0.0875 -0.05
0.15 0.0875 -0.05
0.1625 0.0875 -0.05
0.175 0.0875 -0.05
0.1875 0.0875 -0.05
0.2 0.0875 -0.05
0.2125 0.0875 -0.05
0.225 0.0875 -0.05
0.2375 0.0875 -0.05
0.25 0.0875 -0.05
0.2625 0.0875 -0.05
0.275 0.0875 -0.05
0.2875 0.0875 -0.05
0.3 0.0875 -0.05
0.3125 0.0875 -0.05
0.325 0.0875 -0.05
0.3375 0.0875 -0.05
0.35 0.0875 -0.05
0.3625 0.0875 -0.05
0.375 0.0875 -0.05
0.3875 0.0875 -0.05
0.4 0.0875 -0.05
0.4125 0.0875 -0.05
0.425 0.0875 -0.05
0.4375 0.0875 -0.05
0.45 0.0875 -0.05
0.4625 0.0875 -0.05
0.475 0.0875 -0.05
0.4875 0.0875 -0.05
0.5 0.0875 -0.05
0.5125 0.0875 -0.05
0.525 0.0875 -0.05
0.5375 0.0875 -0.05
0.55 0.0875 -0.05
0.5625 0.0875 -0.05
0.575 0.0875 -0.05
0.5875 0.0875 -0.05
0.6 0.0875 -0.05
0.0 0.1 -0.05
0.0125 0.1 -0.05
0.025 0.1 -0.05
0.0375 0.1 -0.05
0.05 0.1 -0.05
0.0625 0.1 -0.05
0.075 0.1 -0.05
0.0875 0.1 -0.05
0.1 0.1 -0.05
0.1125 0.1 -0.05
0.125 0.1 -0.05
0.1375 0.1 -0.05
0.15 0.1 -0.05
0.1625 0.1 -0.05
0.175 0.1 -0.05
0.1875 0.1 -0.05
0.2 0.1 -0.05
0.2125 0.1 -0.05
0.225 0.1 -0.05
0.2375 0.1 -0.05
0.25 0.1 -0.05
0.2625 0.1 -0.05
0.275 0.1 -0.05
0.2875 0.1 -0.05
0.3 0.1 -0.05
0.3125 0.1 -0.05
0.325 0.1 -0.05
0.3375 0.1 -0.05
0.35 0.1 -0.05
0.3625 0.1 -0.05
0.375 0.1 -0.05
0.3875 0.1 -0.05
0.4 0.1 -0.05
0.4125 0.1 -0.05
0.425 0.1 -0.05
0.4375 0.1 -0.05
0.45 0.1 -0.05
0.4625 0.1 -0.05
0.475 0.1 -0.05
0.4875 0.1 -0.05
0.5 0.1 -0.05
0.5125 0.1 -0.05
0.525 0.1 -0.05
0.5375 0.1 -0.05
0.55 0.1 -0.05
0.5625 0.1 -0.05
0.575 0.1 -0.05
0.5875 0.1 -0.05
0.6 0.1 -0.05
0.0 0.1125 -0.05
0.0125 0.1125 -0.05
0.025 0.1125 -0.05
0.0375 0.1125 -0.05
0.05 0.1125 -0.05
0.0625 0.1125 -0.05
0.075 0.1125 -0.05
0.0875 0.1125 -0.05
0.1 0.1125 -0.05
0.1125 0.1125 -0.05
0.125 0.1125 -0.05
0.1375 0.1125 -0.05
0.15 0.1125 -0.05
0.1625 0.1125 -0.05
0.175 0.1125 -0.05
0.1875 0.1125 -0.05
0.2 0.1125 -0.05
0.2125 0.1125 -0.05
0.225 0.1125 -0.05
0.2375 0.1125 -0.05
0.25 0.1125 -0.05
0.2625 0.1125 -0.05
0.275 0.1125 -0.05
0.2875 0.1125 -0.05
0.3 0.1125 -0.05
0.3125 0.1125 -0.05
0.325 0.1125 -0.05
0.3375 0.1125 -0.05
0.35 0.1125 -0.05
0.3625 0.1125 -0.05
0.375 0.1125 -0.05
0.3875 0.1125 -0.05
0.4 0.1125 -0.05
0.4125 0.1125 -0.05
0.425 0.1125 -0.05
0.4375 0.1125 -0.05
0.45 0.1125 -0.05
0.4625 0.1125 -0.05
0.475 0.1125 -0.05
0.4875 0.1125 -0.05
0.5 0.1125 -0.05
0.5125 0.1125 -0.05
0.525 0.1125 -0.05
0.5375 0.1125 -0.05
0.55 0.1125 -0.05
0.5625 0.1125 -0.05
0.575 0.1125 -0.05
0.5875 0.1125 -0.05
0.6 0.1125 -0.05
0.0 0.125 -0.05
0.0125 0.125 -0.05
0.025 0.125 -0.05
0.0375 0.125 -0.05
0.05 0.125 -0.05
0.0625 0.125 -0.05
0.075 0.125 -0.05
0.0875 0.125 -0.05
0.1 0.125 -0.05
0.1125 0.125 -0.05
0.125 0.125 -0.05
0.1375 0.125 -0.05
0.15 0.125 -0.05
0.1625 0.125 -0.05
0.175 0.125 -0.05
0.1875 0.125 -0.05
0.2 0.125 -0.05
0.2125 0.125 -0.05
0.225 0.125 -0.05
0.2375 0.125 -0.05
0.25 0.125 -0.05
0.2625 0.125 -0.05
0.275 0.125 -0.05
0.2875 0.125 -0.05
0.3 0.125 -0.05
0.3125 0.125 -0.05
0.325 0.125 -0.05
0.3375 0.125 -0.05
0.35 0.125 -0.05
0.3625 0.125 -0.05
0.375 0.125 -0.05
0.3875 0.125 -0.05
0.4 0.125 -0.05
0.4125 0.125 -0.05
0.425 0.125 -0.05
0.4375 0.125 -0.05
0.45 0.125 -0.05
0.4625 0.125 -0.05
0.475 0.125 -0.05
0.4875 0.125 -0.05
0.5 0.125 -0.05
0.5125 0.125 -0.05
0.525 0.125 -0.05
0.5375 0.125 -0.05
0.55 0.125 -0.05
0.5625 0.125 -0.05
0.575 0.125 -0.05
0.5875 0.125 -0.05
0.6 0.125 -0.05
0.0 0.1375 -0.05
0.0125 0.1375 -0.05
0.025 0.1375 -0.05
0.0375 0.1375 -0.05
0.05 0.1375 -0.05
0.0625 0.1375 -0.05
0.075 0.1375 -0.05
0.0875 0.1375 -0.05
[...]
CELL_DATA 16128
SCALARS P float 1
LOOKUP_TABLE default
100000.00439263538
99999.99194800982
100000.01305494207
99999.9771849809
100000.03813273495
99999.93450036185
100000.11088766412
99999.81029040727
100000.32370942913
99999.4439812376
100000.95917824689
99998.32851729692
100002.95281781271
99994.66731259806
100009.9318028869
99980.67158437737
100039.67667715487
99913.20196582134
100202.10287718546
99502.79010472464
101293.90421416248
96617.23770236355
109781.42994560744
75614.73474805923
231500.83195951354
694652.6572273971
1.0238275418262735e6
1.049920087253509e6
1.058823587734784e6
1.0711269047047135e6
1.0821198007697698e6
1.0929353876010252e6
1.1032419612281884e6
1.1131370074349504e6
1.1225746630473374e6
1.131583176992283e6
1.1401040424065723e6
1.1481944919098904e6
1.155698682919522e6
1.1628082569690996e6
1.1690933753914684e6
1.175187767259379e6
1.1798572273905252e6
1.1851192972200033e6
1.187299129099676e6
1.1926952775093305e6
1.190129312739452e6
1.1990926030690034e6
100000.00441954343
99999.99197644662
100000.01313762422
99999.97709171408
100000.03849845775
99999.93381130601
100000.11245227956
99999.8072472133
100000.3297029015
99999.43281470769
100000.97945817605
99998.29330287507
100003.01095516008
99994.57871376214
100010.0497387298
99980.5627165136
100039.63833112468
99913.81838927629
100199.85879241746
99509.41391428966
101276.90641880437
96657.83834836849
109682.7468754284
75774.98596973743
228913.90068354976
692225.4299222603
1.0261928311268276e6
1.0545822753849044e6
1.0638564791562452e6
1.0765450586539437e6
1.0876992166736259e6
1.0986292068801792e6
1.109023098456281e6
1.1190038253702773e6
1.128532440924442e6
1.1376400759220913e6
1.1462675144251476e6
1.1544701483984047e6
1.16208869687317e6
1.1693117206054698e6
1.175703511478377e6
1.1818955724266332e6
1.1866426255943093e6
1.1919685128527407e6
1.1941683326401922e6
1.1995923048051572e6
1.1969375804500792e6
1.2060000856769977e6
100000.00353995836
99999.99359659466
100000.01046745708
99999.98180762936
100000.03049309108
99999.94774257323
100000.08851023251
99999.8487573663
100000.25795793756
99999.5572418241
100000.76369264985
99998.66813419401
100002.35930137902
99995.71356657159
100008.07100560635
99984.0234759466
100033.57119708139
99924.53580786064
100180.79303004651
99543.89166835455
101212.55144971768
96777.99739634448
109416.77658094512
76194.19483319425
221330.29645390442
680315.7872609877
1.0199822769006406e6
1.0515559935322753e6
1.0598888670804785e6
1.0724356959520944e6
1.0833582603065372e6
1.0941161406924718e6
1.1043413561443067e6
1.114155913992046e6
1.1235144101890412e6
1.1324469416506502e6
1.1408955868890819e6
1.1489167267267844e6
1.1563558154854306e6
1.1634018096970092e6
1.1696282247709443e6
1.1756627184272131e6
1.180277475225849e6
1.185483484275907e6
1.1875999658100172e6
1.192972530540057e6
1.190239481816017e6
1.1994582952707198e6
100000.00234431308
99999.99580806773
100000.00683541749
99999.98821439449
100000.01963874846
99999.9665854108
100000.05620576507
99999.9045909448
100000.16178002444
99999.72338585809
100000.47683265273
99999.16411481367
100001.50125865325
99997.20077509337
100005.48805946628
99988.53211688531
100025.65367730935
99938.63658717273
100155.24389335251
99591.6525865497
101118.50242629655
96966.93289044283
108958.90770749166
77021.75397702816
210277.38227835175
663882.1729657046
1.0142637594377915e6
1.0518106247818219e6
1.0593937219117412e6
1.0722235077101248e6
1.0831610141944927e6
1.0939463651616555e6
1.1041695111633257e6
1.113975524603603e6
1.123323411063454e6
1.132248500333477e6
1.140696623323952e6
1.1487253619828776e6
1.1561833585819053e6
1.1632573114516854e6
1.1695250939861443e6
1.175606262828453e6
1.1802794001322286e6
1.1855420604582513e6
1.187707904019748e6
1.1931509613218645e6
1.1903557423443147e6
1.1998269466876674e6
100000.00098349823
99999.99831602948
100000.00272739322
99999.99543514893
100000.00744031458
99999.98769053735
100000.02013020677
99999.96675007936
100000.05500363678
99999.907370797
100000.1598013018
99999.71161659219
100000.55393224211
99998.8463899341
100002.61423711326
99993.60070941252
100016.59308683644
99955.2271236304
100123.90674647134
99653.56414832194
100987.74056942308
97249.95168094958
108224.23168674242
78486.55318250196
195855.86657054306
640916.4977646964
1.0046658833759568e6
1.0504009751780855e6
1.0565583422874333e6
1.0694051794303427e6
1.0801006303413033e6
1.0907025920347346e6
1.100732670595544e6
1.1103473695917686e6
1.1195019863302086e6
1.1282320846057266e6
1.1364851465782172e6
1.1443187328900397e6
1.1515859465560543e6
1.1584713800330465e6
1.1645619802611652e6
1.1704692815772167e6
1.1749889913888015e6
1.1801043134286995e6
1.1821422341694585e6
1.1875102874752472e6
1.1845367292261233e6
1.1942693271935987e6
99999.99962557982
100000.00079440739
99999.99867952526
100000.0025042503
99999.99555194876
100000.00815137799
99999.98531596965
100000.02647607346
99999.95278674971
100000.08299701067
99999.8576704163
100000.2334596672
99999.64854052522
100000.42932619932
99999.81674786369
99998.63125788922
100007.32777865088
99972.92002920822
100088.54432860648
99728.20533318089
100818.1115311187
97641.62578641206
107156.3610462446
80789.06649028776
178877.78878895144
612058.3681029892
992162.8512746538
1.0493713767960519e6
1.0540185611516978e6
1.06703421441036e6
1.0775816123487586e6
1.0880777239508117e6
1.0979796413160001e6
1.1074607577008114e6
1.1164778707850769e6
1.125070305305909e6
1.1331901976641638e6
1.1408971534081176e6
1.148050727795521e6
1.1548345039633985e6
1.160845617090104e6
1.1666873066276468e6
1.1711699996756238e6
1.1762614090000375e6
1.1782851455684153e6
1.1836974773568988e6
1.1805960224946411e6
1.1907047867178263e6
99999.9984178342
100000.00295921859
99999.99515770738
100000.00858370964
99999.98540825899
100000.0254444044
99999.95614388745
100000.07610906009
99999.86847989143
100000.22696013059
99999.61107342519
100000.65882472166
99998.90829967691
100001.73568960732
99997.46505296265
100002.98995219177
99998.92802019668
99989.9468404954
100051.92402041864
99811.6269022443
100614.25204296142
98143.25670323097
105735.74438590609
84080.99972871317
160087.95881005062
577042.4524466288
975388.0538971507
1.0477099082677653e6
1.05063219555612e6
1.0636929119450422e6
1.073985893534269e6
1.0842678920708457e6
1.0939390905401758e6
1.1031830279352937e6
1.111956313197483e6
1.120299139328294e6
1.1281663855177625e6
1.1356175710582559e6
1.1425170850327888e6
1.1490452774455023e6
1.1548083840216717e6
1.160400015637927e6
1.1646469853547541e6
1.1695075814381104e6
1.1713070663952588e6
1.1765882731707727e6
1.1731797826790188e6
1.1836834235394443e6
99999.99746144544
100000.0046187669
99999.99247537508
100000.01311476012
99999.97796369954
100000.0378932187
99999.93553268201
100000.11051341481
99999.81113217994
100000.32321305085
99999.44859477734
100000.93649825714
99998.4254694275
100002.59829686956
99995.86374691376
100006.11866621929
99992.42025233064
100004.4104293423
100017.55617480166
99897.28383554413
100388.40215524922
98735.61013445441
104009.20896405754
88373.54033087444
140487.66434314955
536118.7259483365
953708.1997350818
1.045582574914642e6
1.0469465124147526e6
1.0600046466371655e6
1.0700617937548321e6
1.0801234706104223e6
1.089558229929587e6
1.0985539911806206e6
1.1070701414702998e6
1.1151486868639453e6
1.1227493319003268e6
1.129933994046346e6
1.1365755519464377e6
1.142855752655123e6
1.148395987587844e6
1.1537865066932992e6
1.1578756960986413e6
1.1626152859678862e6
1.1643209676071445e6
1.1696238597884765e6
1.1660008761766476e6
1.177059520021344e6
99999.99679736521
100000.00570318561
99999.9907436766
100000.01591272274
99999.97352168511
100000.04498731671
99999.92434958507
100000.1281789684
99999.78342985743
100000.36684068467
99999.3794702224
100001.04863732311
99998.23542410793
100002.94533662291
99995.16203540987
100007.7009804176
99988.49167545936
100014.7881047731
99988.91068084484
99977.25049980803
100159.41698198524
99376.08907139153
102101.59063562447
93466.35906264506
121243.72568074388
489638.7384568601
926022.0087455908
1.0424861460183068e6
1.0428230872640603e6
1.05569002092044e6
1.065480442972423e6
1.0752523313987784e6
1.0843852877859066e6
1.0930604269355282e6
1.1012407060200567e6
1.1089671424671023e6
1.1162014503118051e6
1.1230039238212332e6
1.1292501954177085e6
1.1351164111834362e6
1.1402289181039273e6
1.1451667258001736e6
1.1487868293054828e6
1.1530441897685817e6
1.1542341892753246e6
1.1591714457551416e6
1.1549054459053522e6
1.1665024929134946e6
99999.99640750221
100000.00626409039
99999.98987072358
100000.01717228821
99999.97171566555
100000.0474345517
99999.92127478686
100000.13154726823
99999.78093874909
100000.36576258404
99999.38984838981
100001.0188094247
99998.29965895733
100002.83569756057
99995.28134928367
100007.80840934305
99987.19816645325
100020.51009858957
99968.28992351748
100044.14235858156
99950.08497623126
100000.6879729051
100210.93809535589
98887.65382624327
103716.56549694117
438342.56161050656
891271.1157870733
1.0379047757043688e6
1.0384447310770802e6
1.0508617490527937e6
1.0603983828429386e6
1.0698374167252313e6
1.078631005200416e6
1.0869405382840566e6
1.0947354407709893e6
1.1020558051511766e6
1.1088672450016562e6
1.1152319068594743e6
1.121034512644139e6
1.1264556372091435e6
1.131142170062118e6
1.1356800359295604e6
1.1389599447330707e6
1.1429488636281283e6
1.1439356940149546e6
1.1488647135526435e6
1.144287959997265e6
1.1567171904327767e6
99999.99623156081
100000.00644127416
99999.9896164063
100000.0173674614
99999.9716778858
100000.04686913523
99999.92328805488
100000.1262090772
99999.79338273859
100000.33877549929
99999.44558888317
100000.90845990111
99998.50902040942
100002.4595946664
99995.90076780536
100006.95403721632
99987.81024683686
100022.34689868164
99955.9085908406
100093.19150400408
99782.0287271886
100534.63000790347
98576.15234613381
103903.01377868876
89377.50697294596
383382.99954431196
848345.9257916716
1.0309379775296733e6
1.0338890220716149e6
1.045472055446044e6
1.0547668044769117e6
1.0638123652458473e6
1.0722100130206207e6
1.080086175413847e6
1.0874172115230805e6
1.094238246767161e6
1.1005132198005004e6
1.106297746305487e6
1.1114716000971424e6
1.1162011689852865e6
1.120122070577387e6
1.1237966829831346e6
1.126091187910578e6
1.1289848552468559e6
1.128679199847901e6
1.132496752799996e6
1.1262804344315813e6
1.1393067333067665e6
99999.99619507133
100000.00640342706
99999.98969226166
100000.0170623276
99999.97237534165
100000.04523821226
99999.92676849072
100000.1189280999
99999.80816658531
100000.30930983467
99999.50322541746
100000.79789179495
99998.71612968875
100002.08466843574
99996.54288297026
100005.96483415272
99988.97427991896
100022.28349051703
99949.66983632691
100123.73290581623
99669.88481148034
100909.91722346412
97423.29512888656
107642.70133117212
79617.30404470913
326392.47559468274
796294.7137916045
1.0203449206128988e6
1.0292723868111464e6
1.0395507665586076e6
1.048629838457784e6
1.0572292127110038e6
1.0651810157187139e6
1.072564025139605e6
1.0793632596347402e6
1.0856087241235115e6
1.0912644456025467e6
1.0963841672687847e6
1.1008534302663016e6
1.1048429421304509e6
1.1080134315647082e6
1.1109465352026292e6
1.1125714606591014e6
1.1149018759996993e6
1.114203500723189e6
1.11788792408149e6
1.1113250683866981e6
1.1254605371056923e6
99999.99623949888
100000.00628129038
99999.98987585721
100000.01668903149
99999.97301604188
100000.04403799295
99999.92891491661
100000.11498799795
99999.81532105136
100000.29621776096
99999.5270921111
100000.75452925681
99998.79389186681
100001.94899139181
99996.76681377627
100005.64067307867
99989.29113328921
100022.60047479102
99946.39277605474
100138.24350949169
99619.18838055582
101080.81575509046
96915.09630413531
109327.4754130047
75416.74222603062
269447.90702012007
734526.1679409707
1.0044775087349853e6
1.024637739220323e6
1.0331239548584826e6
1.0420014386667159e6
1.0501011065127274e6
1.0575500343796178e6
1.0643705705104852e6
1.0705536915068775e6
1.0761186403435436e6
1.0810197880928179e6
1.085293708257044e6
1.0888037469241484e6
1.0916835404984194e6
1.0935400442460696e6
1.0948811929520573e6
1.0945017087663056e6
1.094372407570583e6
1.0903993070111116e6
1.0907169312293543e6
1.0791538058007439e6
1.093193995659985e6
99999.99634316444
100000.006118679
99999.99009593063
100000.01637851566
99999.97336798739
100000.04369734875
99999.92892985302
100000.11590793711
99999.81191297162
100000.30525526947
99999.50576986655
100000.80122411897
99998.69636141142
100002.1449406144
99996.38749728548
100006.34756288856
99988.04884513457
100024.62455087688
99943.72132655849
100140.23191978683
99625.827765181
101042.18447349797
97077.33452308868
108754.62281373174
76889.35632612409
214917.7166265401
663048.2700147023
981330.3307408553
1.0198953639768421e6
1.0262696912476909e6
1.0349191735764305e6
1.0424726129135042e6
1.049362779390091e6
1.0555567966727293e6
1.0610488252652774e6
1.0658465864513111e6
1.0698954848584384e6
1.0732192782320853e6
1.0756740864244944e6
1.0773838957529506e6
1.0779741118861244e6
1.0779667714944656e6
1.076277540086732e6
1.0748791559138661e6
1.0701109061056662e6
1.0695358650271557e6
1.0579685802767691e6
1.0712520174673805e6
99999.99652404971
100000.00586352337
99999.99044916412
100000.01592362304
99999.97383772032
100000.04340980586
99999.928379628
100000.11867520858
99999.8036765397
100000.32563511457
99999.45932912217
100000.90115204857
99998.48997912627
100002.55533070916
99995.6045882715
100007.76299537013
99985.71365400859
100027.82929072237
99941.67494070122
100132.0505673086
99678.21080800214
100834.22608411133
97775.64431237931
106384.34898857085
83116.62435440245
165458.40853123766
582690.2068342922
948570.2878117511
1.0146347316084726e6
1.0191050438232943e6
1.0274160305468274e6
1.0343851230746591e6
1.0406587209659844e6
1.046161043599224e6
1.0508809900798546e6
1.0548082913450778e6
1.0578667154482345e6
1.0600463130385655e6
1.0611543266319602e6
1.0612357787410629e6
1.0597848089991522e6
1.0571168213463207e6
1.0517526986436662e6
1.0452370017065712e6
1.0325771592870323e6
1.0219663208781255e6
992622.717560972
999108.685240578
99999.99682251096
100000.00540612632
99999.99113478529
100000.01490571126
99999.97524196315
100000.04155557783
99999.9304303991
100000.11712438916
99999.80255304577
100000.33436406589
99999.43180230993
100000.97060570419
99998.33245255663
100002.88681626327
99994.9533405564
100008.93922165912
99983.87596102343
100029.80316305127
99943.03691947351
100113.53236722382
99761.7274265631
100529.62177905685
98760.43807304943
103133.4848783546
92139.59346037461
124130.03606008233
495384.9247175237
903615.7712560735
1.0078525999342328e6
1.0117715511402849e6
1.0195195266193477e6
1.0258842209624867e6
1.0314905279218877e6
1.0362470307109965e6
1.0401294323332793e6
1.0431079696274335e6
1.0450837923034183e6
1.046014383828507e6
1.0456718771122613e6
1.0440469036475363e6
1.0406076292426283e6
1.0355921284890099e6
1.027667451374106e6
1.018183581313908e6
1.0034353678673444e6
988584.8123606563
960461.2792433022
927425.6020744194
99999.99727099221
100000.00465021734
99999.9923308051
100000.0129408182
99999.97834702197
100000.03658396211
99999.9381762434
100000.10511004628
99999.82068855934
100000.30756556516
99999.46990653203
100000.91874892345
99998.39906031314
100002.804901577
99995.06163409849
100008.72842897313
99984.54134172862
100027.33329201306
99952.01092085738
100082.6189450053
99862.90890654916
100207.09039347248
99747.29929612429
100056.7369871661
101134.22971819727
94235.49350883697
404530.9879937335
843938.417374606
997638.296413941
1.004380660673848e6
1.0112450867510234e6
1.0170102084292127e6
1.0219111159509157e6
1.0258790945484907e6
1.0288686356113378e6
1.0308271239959486e6
1.0316243399668951e6
1.0311699754919576e6
1.0291675704491949e6
1.0254887128622517e6
1.019418222662095e6
1.010802756728271e6
997652.8680144947
979721.0318078971
950289.5797122526
907483.6660355036
822098.8896299811
670849.3232655864
99999.99786475812
100000.00358426593
99999.99406811103
100000.0099343595
99999.98338189576
100000.02796505934
99999.95279234755
100000.08009917654
99999.86344953763
100000.2340487981
99999.59671365039
100000.69857049857
99998.78446165612
100002.1218142786
99996.2945023507
100006.44286492998
99988.94166588754
100018.42349159048
99971.17568296561
100038.54790220434
99970.67129651688
99928.15552063835
100498.58028186095
97972.39181976416
107209.5377110937
78208.75565805216
315039.64832674246
767893.4702083984
981069.6864031404
996955.9933960126
1.0026236737683464e6
1.0078116198001171e6
1.0119864937973184e6
1.0151394108285474e6
1.0172017654933326e6
1.0180982464679194e6
1.0176677009434226e6
1.0157699500088701e6
1.0120483066611087e6
1.0062656528859754e6
997569.6948478279
985542.7062038106
967903.2691152499
943722.4982961696
906057.9032861537
851522.0260575628
756520.6951008615
601000.9854441902
99999.99854852962
100000.00231635636
99999.99616722332
100000.00621287058
99999.98977750512
100000.01671574639
99999.97247793389
100000.04530086528
99999.92512612934
100000.12398328792
99999.79412670228
100000.34226066372
99999.43140839151
100000.93957460739
99998.46907505573
100002.41541889418
99996.45416839371
100004.30344956975
99997.93066407276
99987.42532886931
100069.3616094163
99736.39324564037
100878.16099531339
97239.85929509609
108710.94840036897
75809.51420131116
232538.85898269748
675754.1313490929
954495.6079325288
989363.0438909862
993760.4893882048
998365.8513279044
1.0018027685942346e6
1.0041253507747619e6
1.0052441755540563e6
1.0050636973694055e6
1.0033912005729013e6
1.0000472386255902e6
994618.8950445191
986788.1190309715
975607.1671855912
960510.8824717589
939112.0489607797
910349.8128864714
867669.8678635
808825.3239008692
714874.2101345392
582298.4059195771
99999.99922716717
100000.00105093331
99999.99827727154
100000.00244973657
99999.99629852503
100000.0051603059
99999.9928810053
100000.00891909734
99999.99022015835
100000.00673652835
100000.00637113366
99999.95591698444
100000.13792121688
99999.64251422441
100000.85575559524
99998.0243952723
100004.49932559552
99989.72511921391
100023.7612826682
99943.74593648162
100136.52856464744
99657.7311651356
100881.10131280299
97685.41927798704
106409.42166778071
83400.86994384785
162511.30097926542
570024.2163868712
913748.1311581305
980970.9091843241
984838.1546404246
988771.7049275384
991459.2982935937
992944.8964977285
993122.3869370251
991876.9741442425
988991.4825750715
984255.5398042375
977219.9818162251
967521.556468958
954170.849234435
936577.7009523751
912388.0240496657
880785.9887075372
835763.4731414687
777014.9768993041
688749.0450830001
578273.4169934709
99999.99979678966
100000.00001487373
100000.00000531462
99999.99940646476
100000.00153335389
99999.99598040752
100000.00892827578
99999.9806157587
100000.04028364457
99999.91764835484
100000.16557198006
99999.67013359533
100000.65254157956
99998.71433936458
100002.52734603675
99995.03369752054
100009.7683075063
99980.73770963849
100038.1088747649
99924.2290608816
100151.26502104591
99696.1861797462
100611.41944965243
98769.43108688011
102503.54360227994
95203.26397792423
110632.77358912115
455747.4759538858
854152.426536948
969830.3645056227
975972.738608919
979094.4260922311
981036.9887810852
981696.3631006754
980956.5779824462
978684.7376274709
974649.7676854122
968621.168623061
960133.7888591905
948813.0888592952
933676.4843814836
914188.9253134258
888132.9973453667
855055.9006558551
809648.2321585473
753070.6896824052
672557.7631473118
579125.759679016
100000.0001819299
99999.99936833844
100000.00107361995
99999.997615874
100000.00450041752
99999.99102762499
100000.01714070949
99999.96697463896
100000.06282249799
99999.88051954375
100000.22625616853
99999.57196763413
100000.80848180618
99998.47406177402
100002.87679154192
99994.58564980322
100010.15604581071
99981.06761760887
100034.87626489038
99937.10981682267
100108.76413574175
99826.71965247305
100222.87139571727
99902.24129058726
99158.96216767159
104868.93454457779
81729.17137374566
341280.10393070936
771859.9997551842
952017.5771888486
967033.4563219761
969348.0292048889
970589.2697696622