# vtk DataFile Version 2.0
JuliaCFD
ASCII
DATASET UNSTRUCTURED_GRID

POINTS 32898 float
0.0 0.0 -0.05
0.0125 0.0 -0.05
0.025 0.0 -0.05
0.0375 0.0 -0.05
0.05 0.0 -0.05
0.0625 0.0 -0.05
0.075 0.0 -0.05
0.0875 0.0 -0.05
0.1 0.0 -0.05
0.1125 0.0 -0.05
0.125 0.0 -0.05
0.1375 0.0 -0.05
0.15 0.0 -0.05
0.1625 0.0 -0.05
0.175 0.0 -0.05
0.1875 0.0 -0.05
0.2 0.0 -0.05
0.2125 0.0 -0.05
0.225 0.0 -0.05
0.2375 0.0 -0.05
0.25 0.0 -0.05
0.2625 0.0 -0.05
0.275 0.0 -0.05
0.2875 0.0 -0.05
0.3 0.0 -0.05
0.3125 0.0 -0.05
0.325 0.0 -0.05
0.3375 0.0 -0.05
0.35 0.0 -0.05
0.3625 0.0 -0.05
0.375 0.0 -0.05
0.3875 0.0 -0.05
0.4 0.0 -0.05
0.4125 0.0 -0.05
0.425 0.0 -0.05
0.4375 0.0 -0.05
0.45 0.0 -0.05
0.4625 0.0 -0.05
0.475 0.0 -0.05
0.4875 0.0 -0.05
0.5 0.0 -0.05
0.5125 0.0 -0.05
0.525 0.0 -0.05
0.5375 0.0 -0.05
0.55 0.0 -0.05
0.5625 0.0 -0.05
0.575 0.0 -0.05
0.5875 0.0 -0.05
0.6 0.0 -0.05
0.0 0.0125 -0.05
0.0125 0.0125 -0.05
0.025 0.0125 -0.05
0.0375 0.0125 -0.05
0.05 0.0125 -0.05
0.0625 0.0125 -0.05
0.075 0.0125 -0.05
0.0875 0.0125 -0.05
0.1 0.0125 -0.05
0.1125 0.0125 -0.05
0.125 0.0125 -0.05
0.1375 0.0125 -0.05
0.15 0.0125 -0.05
0.1625 0.0125 -0.05
0.175 0.0125 -0.05
0.1875 0.0125 -0.05
0.2 0.0125 -0.05
0.2125 0.0125 -0.05
0.225 0.0125 -0.05
0.2375 0.0125 -0.05
0.25 0.0125 -0.05
0.2625 0.0125 -0.05
0.275 0.0125 -0.05
0.2875 0.0125 -0.05
0.3 0.0125 -0.05
0.3125 0.0125 -0.05
0.325 0.0125 -0.05
0.3375 0.0125 -0.05
0.35 0.0125 -0.05
0.3625 0.0125 -0.05
0.375 0.0125 -0.05
0.3875 0.0125 -0.05
0.4 0.0125 -0.05
0.4125 0.0125 -0.05
0.425 0.0125 -0.05
0.4375 0.0125 -0.05
0.45 0.0125 -0.05
0.4625 0.0125 -0.05
0.475 0.0125 -0.05
0.4875 0.0125 -0.05
0.5 0.0125 -0.05
0.5125 0.0125 -0.05
0.525 0.0125 -0.05
0.5375 0.0125 -0.05
0.55 0.0125 -0.05
0.5625 0.0125 -0.05
0.575 0.0125 -0.05
0.5875 0.0125 -0.05
0.6 0.0125 -0.05
0.0 0.025 -0.05
0.0125 0.025 -0.05
0.025 0.025 -0.05
0.0375 0.025 -0.05
0.05 0.025 -0.05
0.0625 0.025 -0.05
0.075 0.025 -0.05
0.0875 0.025 -0.05
0.1 0.025 -0.05
0.1125 0.025 -0.05
0.125 0.025 -0.05
0.1375 0.025 -0.05
0.15 0.025 -0.05
0.1625 0.025 -0.05
0.175 0.025 -0.05
0.1875 0.025 -0.05
0.2 0.025 -0.05
0.2125 0.025 -0.05
0.225 0.025 -0.05
0.2375 0.025 -0.05
0.25 0.025 -0.05
0.2625 0.025 -0.05
0.275 0.025 -0.05
0.2875 0.025 -0.05
0.3 0.025 -0.05
0.3125 0.025 -0.05
0.325 0.025 -0.05
0.3375 0.025 -0.05
0.35 0.025 -0.05
0.3625 0.025 -0.05
0.375 0.025 -0.05
0.3875 0.025 -0.05
0.4 0.025 -0.05
0.4125 0.025 -0.05
0.425 0.025 -0.05
0.4375 0.025 -0.05
0.45 0.025 -0.05
0.4625 0.025 -0.05
0.475 0.025 -0.05
0.4875 0.025 -0.05
0.5 0.025 -0.05
0.5125 0.025 -0.05
0.525 0.025 -0.05
0.5375 0.025 -0.05
0.55 0.025 -0.05
0.5625 0.025 -0.05
0.575 0.025 -0.05
0.5875 0.025 -0.05
0.6 0.025 -0.05
0.0 0.0375 -0.05
0.0125 0.0375 -0.05
0.025 0.0375 -0.05
0.0375 0.0375 -0.05
0.05 0.0375 -0.05
0.0625 0.0375 -0.05
0.075 0.0375 -0.05
0.0875 0.0375 -0.05
0.1 0.0375 -0.05
0.1125 0.0375 -0.05
0.125 0.0375 -0.05
0.1375 0.0375 -0.05
0.15 0.0375 -0.05
0.1625 0.0375 -0.05
0.175 0.0375 -0.05
0.1875 0.0375 -0.05
0.2 0.0375 -0.05
0.2125 0.0375 -0.05
0.225 0.0375 -0.05
0.2375 0.0375 -0.05
0.25 0.0375 -0.05
0.2625 0.0375 -0.05
0.275 0.0375 -0.05
0.2875 0.0375 -0.05
0.3 0.0375 -0.05
0.3125 0.0375 -0.05
0.325 0.0375 -0.05
0.3375 0.0375 -0.05
0.35 0.0375 -0.05
0.3625 0.0375 -0.05
0.375 0.0375 -0.05
0.3875 0.0375 -0.05
0.4 0.0375 -0.05
0.4125 0.0375 -0.05
0.425 0.0375 -0.05
0.4375 0.0375 -0.05
0.45 0.0375 -0.05
0.4625 0.0375 -0.05
0.475 0.0375 -0.05
0.4875 0.0375 -0.05
0.5 0.0375 -0.05
0.5125 0.0375 -0.05
0.525 0.0375 -0.05
0.5375 0.0375 -0.05
0.55 0.0375 -0.05
0.5625 0.0375 -0.05
0.575 0.0375 -0.05
0.5875 0.0375 -0.05
0.6 0.0375 -0.05
0.0 0.05 -0.05
0.0125 0.05 -0.05
0.025 0.05 -0.05
0.0375 0.05 -0.05
0.05 0.05 -0.05
0.0625 0.05 -0.05
0.075 0.05 -0.05
0.0875 0.05 -0.05
0.1 0.05 -0.05
0.1125 0.05 -0.05
0.125 0.05 -0.05
0.1375 0.05 -0.05
0.15 0.05 -0.05
0.1625 0.05 -0.05
0.175 0.05 -0.05
0.1875 0.05 -0.05
0.2 0.05 -0.05
0.2125 0.05 -0.05
0.225 0.05 -0.05
0.2375 0.05 -0.05
0.25 0.05 -0.05
0.2625 0.05 -0.05
0.275 0.05 -0.05
0.2875 0.05 -0.05
0.3 0.05 -0.05
0.3125 0.05 -0.05
0.325 0.05 -0.05
0.3375 0.05 -0.05
0.35 0.05 -0.05
0.3625 0.05 -0.05
0.375 0.05 -0.05
0.3875 0.05 -0.05
0.4 0.05 -0.05
0.4125 0.05 -0.05
0.425 0.05 -0.05
0.4375 0.05 -0.05
0.45 0.05 -0.05
0.4625 0.05 -0.05
0.475 0.05 -0.05
0.4875 0.05 -0.05
0.5 0.05 -0.05
0.5125 0.05 -0.05
0.525 0.05 -0.05
0.5375 0.05 -0.05
0.55 0.05 -0.05
0.5625 0.05 -0.05
0.575 0.05 -0.05
0.5875 0.05 -0.05
0.6 0.05 -0.05
0.0 0.0625 -0.05
0.0125 0.0625 -0.05
0.025 0.0625 -0.05
0.0375 0.0625 -0.05
0.05 0.0625 -0.05
0.0625 0.0625 -0.05
0.075 0.0625 -0.05
0.0875 0.0625 -0.05
0.1 0.0625 -0.05
0.1125 0.0625 -0.05
0.125 0.0625 -0.05
0.1375 0.0625 -0.05
0.15 0.0625 -0.05
0.1625 0.0625 -0.05
0.175 0.0625 -0.05
0.1875 0.0625 -0.05
0.2 0.0625 -0.05
0.2125 0.0625 -0.05
0.225 0.0625 -0.05
0.2375 0.0625 -0.05
0.25 0.0625 -0.05
0.2625 0.0625 -0.05
0.275 0.0625 -0.05
0.2875 0.0625 -0.05
0.3 0.0625 -0.05
0.3125 0.0625 -0.05
0.325 0.0625 -0.05
0.3375 0.0625 -0.05
0.35 0.0625 -0.05
0.3625 0.0625 -0.05
0.375 0.0625 -0.05
0.3875 0.0625 -0.05
0.4 0.0625 -0.05
0.4125 0.0625 -0.05
0.425 0.0625 -0.05
0.4375 0.0625 -0.05
0.45 0.0625 -0.05
0.4625 0.0625 -0.05
0.475 0.0625 -0.05
0.4875 0.0625 -0.05
0.5 0.0625 -0.05
0.5125 0.0625 -0.05
0.525 0.0625 -0.05
0.5375 0.0625 -0.05
0.55 0.0625 -0.05
0.5625 0.0625 -0.05
0.575 0.0625 -0.05
0.5875 0.0625 -0.05
0.6 0.0625 -0.05
0.0 0.075 -0.05
0.0125 0.075 -0.05
0.025 0.075 -0.05
0.0375 0.075 -0.05
0.05 0.075 -0.05
0.0625 0.075 -0.05
0.075 0.075 -0.05
0.0875 0.075 -0.05
0.1 0.075 -0.05
0.1125 0.075 -0.05
0.125 0.075 -0.05
0.1375 0.075 -0.05
0.15 0.075 -0.05
0.1625 0.075 -0.05
0.175 0.075 -0.05
0.1875 0.075 -0.05
0.2 0.075 -0.05
0.2125 0.075 -0.05
0.225 0.075 -0.05
0.2375 0.075 -0.05
0.25 0.075 -0.05
0.2625 0.075 -0.05
0.275 0.075 -0.05
0.2875 0.075 -0.05
0.3 0.075 -0.05
0.3125 0.075 -0.05
0.325 0.075 -0.05
0.3375 0.075 -0.05
0.35 0.075 -0.05
0.3625 0.075 -0.05
0.375 0.075 -0.05
0.3875 0.075 -0.05
0.4 0.075 -0.05
0.4125 0.075 -0.05
0.425 0.075 -0.05
0.4375 0.075 -0.05
0.45 0.075 -0.05
0.4625 0.075 -0.05
0.475 0.075 -0.05
0.4875 0.075 -0.05
0.5 0.075 -0.05
0.5125 0.075 -0.05
0.525 0.075 -0.05
0.5375 0.075 -0.05
0.55 0.075 -0.05
0.5625 0.075 -0.05
0.575 0.075 -0.05
0.5875 0.075 -0.05
0.6 0.075 -0.05
0.0 0.0875 -0.05
0.0125 0.0875 -0.05
0.025 0.0875 -0.05
0.0375 0.0875 -0.05
0.05 0.0875 -0.05
0.0625 0.0875 -0.05
0.075 0.0875 -0.05
0.0875 0.0875 -0.05
0.1 0.0875 -0.05
0.1125 0.0875 -0.05
0.125 0.0875 -0.05
0.1375 0.0875 -0.05
0.15 0.0875 -0.05
0.1625 0.0875 -0.05
0.175 0.0875 -0.05
0.1875 0.0875 -0.05
0.2 0.0875 -0.05
0.2125 0.0875 -0.05
0.225 0.0875 -0.05
0.2375 0.0875 -0.05
0.25 0.0875 -0.05
0.2625 0.0875 -0.05
0.275 0.0875 -0.05
0.2875 0.0875 -0.05
0.3 0.0875 -0.05
0.3125 0.0875 -0.05
0.325 0.0875 -0.05
0.3375 0.0875 -0.05
0.35 0.0875 -0.05
0.3625 0.0875 -0.05
0.375 0.0875 -0.05
0.3875 0.0875 -0.05
0.4 0.0875 -0.05
0.4125 0.0875 -0.05
0.425 0.0875 -0.05
0.4375 0.0875 -0.05
0.45 0.0875 -0.05
0.4625 0.0875 -0.05
0.475 0.0875 -0.05
0.4875 0.0875 -0.05
0.5 0.0875 -0.05
0.5125 0.0875 -0.05
0.525 0.0875 -0.05
0.5375 0.0875 -0.05
0.55 0.0875 -0.05
0.5625 0.0875 -0.05
0.575 0.0875 -0.05
0.5875 0.0875 -0.05
0.6 0.0875 -0.05
0.0 0.1 -0.05
0.0125 0.1 -0.05
0.025 0.1 -0.05
0.0375 0.1 -0.05
0.05 0.1 -0.05
0.0625 0.1 -0.05
0.075 0.1 -0.05
0.0875 0.1 -0.05
0.1 0.1 -0.05
0.1125 0.1 -0.05
0.125 0.1 -0.05
0.1375 0.1 -0.05
0.15 0.1 -0.05
0.1625 0.1 -0.05
0.175 0.1 -0.05
0.1875 0.1 -0.05
0.2 0.1 -0.05
0.2125 0.1 -0.05
0.225 0.1 -0.05
0.2375 0.1 -0.05
0.25 0.1 -0.05
0.2625 0.1 -0.05
0.275 0.1 -0.05
0.2875 0.1 -0.05
0.3 0.1 -0.05
0.3125 0.1 -0.05
0.325 0.1 -0.05
0.3375 0.1 -0.05
0.35 0.1 -0.05
0.3625 0.1 -0.05
0.375 0.1 -0.05
0.3875 0.1 -0.05
0.4 0.1 -0.05
0.4125 0.1 -0.05
0.425 0.1 -0.05
0.4375 0.1 -0.05
0.45 0.1 -0.05
0.4625 0.1 -0.05
0.475 0.1 -0.05
0.4875 0.1 -0.05
0.5 0.1 -0.05
0.5125 0.1 -0.05
0.525 0.1 -0.05
0.5375 0.1 -0.05
0.55 0.1 -0.05
0.5625 0.1 -0.05
0.575 0.1 -0.05
0.5875 0.1 -0.05
0.6 0.1 -0.05
0.0 0.1125 -0.05
0.0125 0.1125 -0.05
0.025 0.1125 -0.05
0.0375 0.1125 -0.05
0.05 0.1125 -0.05
0.0625 0.1125 -0.05
0.075 0.1125 -0.05
0.0875 0.1125 -0.05
0.1 0.1125 -0.05
0.1125 0.1125 -0.05
0.125 0.1125 -0.05
0.1375 0.1125 -0.05
0.15 0.1125 -0.05
0.1625 0.1125 -0.05
0.175 0.1125 -0.05
0.1875 0.1125 -0.05
0.2 0.1125 -0.05
0.2125 0.1125 -0.05
0.225 0.1125 -0.05
0.2375 0.1125 -0.05
0.25 0.1125 -0.05
0.2625 0.1125 -0.05
0.275 0.1125 -0.05
0.2875 0.1125 -0.05
0.3 0.1125 -0.05
0.3125 0.1125 -0.05
0.325 0.1125 -0.05
0.3375 0.1125 -0.05
0.35 0.1125 -0.05
0.3625 0.1125 -0.05
0.375 0.1125 -0.05
0.3875 0.1125 -0.05
0.4 0.1125 -0.05
0.4125 0.1125 -0.05
0.425 0.1125 -0.05
0.4375 0.1125 -0.05
0.45 0.1125 -0.05
0.4625 0.1125 -0.05
0.475 0.1125 -0.05
0.4875 0.1125 -0.05
0.5 0.1125 -0.05
0.5125 0.1125 -0.05
0.525 0.1125 -0.05
0.5375 0.1125 -0.05
0.55 0.1125 -0.05
0.5625 0.1125 -0.05
0.575 0.1125 -0.05
0.5875 0.1125 -0.05
0.6 0.1125 -0.05
0.0 0.125 -0.05
0.0125 0.125 -0.05
0.025 0.125 -0.05
0.0375 0.125 -0.05
0.05 0.125 -0.05
0.0625 0.125 -0.05
0.075 0.125 -0.05
0.0875 0.125 -0.05
0.1 0.125 -0.05
0.1125 0.125 -0.05
0.125 0.125 -0.05
0.1375 0.125 -0.05
0.15 0.125 -0.05
0.1625 0.125 -0.05
0.175 0.125 -0.05
0.1875 0.125 -0.05
0.2 0.125 -0.05
0.2125 0.125 -0.05
0.225 0.125 -0.05
0.2375 0.125 -0.05
0.25 0.125 -0.05
0.2625 0.125 -0.05
0.275 0.125 -0.05
0.2875 0.125 -0.05
0.3 0.125 -0.05
0.3125 0.125 -0.05
0.325 0.125 -0.05
0.3375 0.125 -0.05
0.35 0.125 -0.05
0.3625 0.125 -0.05
0.375 0.125 -0.05
0.3875 0.125 -0.05
0.4 0.125 -0.05
0.4125 0.125 -0.05
0.425 0.125 -0.05
0.4375 0.125 -0.05
0.45 0.125 -0.05
0.4625 0.125 -0.05
0.475 0.125 -0.05
0.4875 0.125 -0.05
0.5 0.125 -0.05
0.5125 0.125 -0.05
0.525 0.125 -0.05
0.5375 0.125 -0.05
0.55 0.125 -0.05
0.5625 0.125 -0.05
0.575 0.125 -0.05
0.5875 0.125 -0.05
0.6 0.125 -0.05
0.0 0.1375 -0.05
0.0125 0.1375 -0.05
0.025 0.1375 -0.05
0.0375 0.1375 -0.05
0.05 0.1375 -0.05
0.0625 0.1375 -0.05
0.075 0.1375 -0.05
0.0875 0.1375 -0.05
[...]
CELL_DATA 16128
SCALARS P float 1
LOOKUP_TABLE default
100000.00282022126
99999.99433164056
100000.00979258427
99999.98193558514
100000.03180148984
99999.94319060772
100000.09986700391
99999.82424434082
100000.30726127705
99999.46377338073
100000.93277355307
99998.3797685008
100002.8113181148
99995.11926269653
100008.49117863386
99985.14839284914
100026.20172166561
99953.02792541403
100086.03297775915
99836.77436174508
100322.12678677673
99329.40284232871
101474.12988181131
96652.24109197942
108394.92423445605
81373.40577798204
341627.6199671272
836098.5205614489
1.0767727831233456e6
1.071881802508372e6
1.087465587667212e6
1.0984971472635719e6
1.1098219892024728e6
1.1205104465138966e6
1.130670568459595e6
1.1403230569202453e6
1.1494006748786336e6
1.157977412655937e6
1.1658963448887845e6
1.1733628618347172e6
1.1799457231899225e6
1.1862990137201662e6
1.1911747794927934e6
1.196633190571558e6
1.1989468785954134e6
1.2045007506380877e6
1.2019859024393023e6
1.2110421719325501e6
100000.00280386509
99999.99438154118
100000.00974263184
99999.98203051102
100000.03168587908
99999.94336864396
100000.09962870622
99999.82459651632
100000.30670822518
99999.46476095491
100000.93074558838
99998.38426653399
100002.80097243346
99995.14286418848
100008.43873540964
99985.26072883522
100025.97310578158
99953.46725316245
100085.27120193085
99837.90193130402
100321.20675031634
99327.56470473576
101489.25795050424
96595.00227828191
108607.28867107416
80864.56022186809
338265.2358986335
834558.1845552177
1.0804993891081535e6
1.0770304059291845e6
1.0930401277399897e6
1.1044046413244472e6
1.1158726614881128e6
1.1266698889067213e6
1.1369151031129775e6
1.1466531494628044e6
1.1558191733542036e6
1.1644882307567017e6
1.1725005899383882e6
1.1800593471021084e6
1.186727964210941e6
1.19315890182599e6
1.1980932250592203e6
1.2035979006385335e6
1.2059152651071951e6
1.2114840174834705e6
1.2088688541628546e6
1.2180224694529257e6
100000.00247427175
99999.99500747201
100000.00868648177
99999.9839272405
100000.02840187978
99999.94915115155
100000.08955898511
99999.84218819224
100000.27609708418
99999.51799085947
100000.83840760759
99998.54413039463
100002.52493591806
99995.61810731191
100007.62379194345
99986.6515202026
100023.61845852032
99957.41070180615
100078.81127965584
99848.1057665847
100306.46798656881
99344.67047473422
101486.51894411382
96521.94870981418
109024.24772442407
79535.9071525972
327677.37977312744
822284.3021652822
1.0754940066602058e6
1.0734637584664905e6
1.0885780118526411e6
1.0998257992492795e6
1.111042393493163e6
1.1216663851356679e6
1.1317328993689013e6
1.1412979211924747e6
1.1502893453760429e6
1.15878349755182e6
1.1666244712431857e6
1.1740154370719483e6
1.1805287280086468e6
1.186812521653828e6
1.1916252410446035e6
1.1970208369065225e6
1.1992654232167043e6
1.2047930486844524e6
1.2021067457913563e6
1.2114227611928987e6
100000.00201770138
99999.99587727786
100000.0072220037
99999.98655446242
100000.02385888735
99999.95713673413
100000.07567406788
99999.86640163155
100000.23403302237
99999.59102018381
100000.71189105319
99998.76296485045
100002.14719131202
99996.26881652749
100006.50601773815
99988.56548034694
100020.36053616377
99962.9131345402
100069.68695866107
99862.80385421624
100284.51922161724
99372.33902892323
101472.8328351419
96445.36718700339
109530.64160897865
77862.51440023887
312361.57910754095
806127.8441957573
1.0724476541183053e6
1.073633614682408e6
1.0880816074568455e6
1.0996539013164833e6
1.1108630688335933e6
1.1215257878545974e6
1.1315925791395495e6
1.141157383358177e6
1.150147971966268e6
1.1586465166768364e6
1.1665013307229588e6
1.1739144755303701e6
1.1804633459398362e6
1.186788424250849e6
1.1916548414894154e6
1.1971034618703541e6
1.1993944435711263e6
1.2049915060651205e6
1.2022408721208025e6
1.2118108414546258e6
100000.00148161729
99999.99689550744
100000.00550818031
99999.989622386
100000.01856011873
99999.96643472191
100000.05952931194
99999.89451839046
100000.18523804349
99999.67567951244
100000.56524654775
99999.01675991948
100001.70844359176
99997.02667987012
100005.19849891473
99990.81907858593
100016.48746814164
99969.54703869918
100058.45244506338
99881.51118121878
100254.89074821783
99414.9356240198
101430.16217029684
96423.29825300585
109922.33792768838
76294.04084475897
292041.20114519243
782942.2084167621
1.0661303916153598e6
1.0718474948876183e6
1.0848226544662425e6
1.0964818970454563e6
1.107397643837544e6
1.1178750956704363e6
1.1277320845038919e6
1.1370953054584556e6
1.1458841992624034e6
1.1541829709346937e6
1.1618437128954013e6
1.1690663483356638e6
1.1754373115736307e6
1.181588818392094e6
1.1863031059878415e6
1.191606746923417e6
1.1937727422771065e6
1.199299260086424e6
1.1963729162648246e6
1.2062075826039084e6
100000.00091965591
99999.99795561562
100000.00372293586
99999.99280726232
100000.01306854829
99999.97604764783
100000.04287186403
99999.92347283484
100000.13506894368
99999.76262977374
100000.41469978493
99999.27743230417
100001.25705739419
99997.80891276327
100003.84159037967
99993.17750876314
100012.3827826125
99976.71082378608
100045.97469565709
99903.21593016876
100217.93516974263
99475.78115804399
101341.14993029545
96515.45059532448
109991.58214729711
75377.87702987927
267694.57325722283
753444.2946638067
1.0579307572256466e6
1.0706658989272458e6
1.081915872015018e6
1.0938775184916144e6
1.1045916596174643e6
1.1149744775666376e6
1.1246966438366107e6
1.1339277794247577e6
1.1425836452239142e6
1.150754145727442e6
1.158298399608388e6
1.1654161166494417e6
1.1717046106160167e6
1.177788099550051e6
1.1824638816736308e6
1.1877435346990384e6
1.1898957800752271e6
1.195469603749846e6
1.192415098472646e6
1.202629331662089e6
100000.00038007526
99999.99896334251
100000.00202434884
99999.99582251583
100000.00788348856
99999.98508901283
100000.02726176739
99999.95050878935
100000.08838728514
99999.8432898659
100000.27539149285
99999.51827746915
100000.84008199525
99998.5328164184
100002.58001456903
99995.38947656592
100008.47604070458
99983.68878595933
100033.37968658272
99926.32905856776
100175.19029834376
99555.7914167006
101192.4356649165
96777.08327866264
109534.71399285125
75661.98913768178
240062.0943682831
716862.797789804
1.0462195524103721e6
1.0689878708582316e6
1.0779356333749217e6
1.0901367632363762e6
1.1005143239178336e6
1.1106819484554227e6
1.1201507023426546e6
1.1291291002106217e6
1.1375271163019428e6
1.1454367896919814e6
1.152722117621778e6
1.1595796835755196e6
1.1656161946875798e6
1.1714462191978858e6
1.1758835572805512e6
1.180931120166614e6
1.1828581942186644e6
1.188304015507075e6
1.1849414234157712e6
1.1955552948266524e6
99999.9998985388
99999.99985154058
100000.00052579616
99999.99846539217
100000.00335810495
99999.99293327625
100000.0138028776
99999.9736643691
100000.04868881429
99999.91139693889
100000.15859036524
99999.71891597244
100000.49452462624
99999.13091738102
100001.53698035676
99997.22995567611
100005.17583583984
99989.74710928065
100021.94757294329
99948.72179349195
100129.7733063165
99651.65050190818
100982.2150032623
97235.04460869139
108416.49184530527
77608.50161727027
210258.8357057641
673101.3998738497
1.0303225364294121e6
1.067243191578278e6
1.073529792294962e6
1.0860219289113136e6
1.0960701642201245e6
1.1060190934253754e6
1.1152299382706091e6
1.1239461832553805e6
1.1320766880918632e6
1.1397175777367696e6
1.1467420317148133e6
1.1533483243386853e6
1.1591590252586077e6
1.1647856162417652e6
1.1690638611125657e6
1.1739911435553387e6
1.175825281406835e6
1.1812974237188299e6
1.1777205998366557e6
1.188896292476432e6
99999.99949463719
100000.00058729654
99999.99928304828
100000.00064175835
99999.99965232887
99999.99930629166
100000.00296847166
99999.9921093388
100000.01744930053
99999.96427649714
100000.06923200458
99999.87006052687
100000.2381857305
99999.56855180625
100000.7809516227
99998.56239492158
100002.75607843415
99994.33513512264
100012.77466987574
99968.23604564709
100085.74043740127
99756.15725419356
100721.44090460698
97878.5896135766
106628.90810418152
81457.46972392587
179584.43317414058
622047.2837386228
1.0088777035677872e6
1.065091326899097e6
1.068479326094833e6
1.0811766335539368e6
1.090842563549197e6
1.1004897200519436e6
1.1093620711093e6
1.1177242491503996e6
1.1254849450936338e6
1.1327389270247994e6
1.1393629433802976e6
1.1455495204414236e6
1.1509265581358534e6
1.15609432806273e6
1.1598971634232653e6
1.1643373490123753e6
1.1656500384049704e6
1.1707580486606197e6
1.1665358276667476e6
1.1782578017477382e6
99999.99917305051
100000.00116931064
99999.99829752385
100000.00236062844
99999.9967386583
100000.00428132265
99999.99459240746
100000.006194066
99999.99396675573
100000.00326901171
100000.00485804508
99999.9760004894
100000.06402029951
99999.85619610565
100000.29913506453
99999.39403688004
100001.2430549864
99997.30949226052
100006.3504905339
99983.44055287626
100046.95722743735
99859.41427198453
100435.36469270283
98653.56391223377
104328.48178108445
87084.33251179139
149621.28967633858
564013.5924537965
980503.0331963438
1.0622874999165293e6
1.0629943620222516e6
1.0757434602398595e6
1.0850280870643465e6
1.094319544393892e6
1.102808291005347e6
1.1107625512843637e6
1.1180977753869616e6
1.1249094746464698e6
1.1310849587522186e6
1.1368211179040903e6
1.1417674187662215e6
1.1465313548024767e6
1.1499917902201316e6
1.1541654434188548e6
1.1552740026886791e6
1.1603760121202439e6
1.1558509452579196e6
1.1684185452066362e6
99999.99892877495
100000.00161614579
99999.99753540184
100000.00369777312
99999.99446499394
100000.00816737211
99999.98806087574
100000.01712396633
99999.97589937995
100000.03287117861
99999.9569245524
100000.05277679097
99999.9423277684
100000.04792632435
99999.99543285333
99999.88995522456
100000.36971474855
99999.05762374916
100002.25734689021
99994.3088100057
100015.68843665108
99951.5461519128
100158.00650562388
99464.06708717854
101832.7549183398
93875.69340586683
122233.13936301628
499788.30697240005
943578.6070174355
1.058181303543889e6
1.05717348537104e6
1.06965304281677e6
1.0785583278631142e6
1.0874097434251828e6
1.095438224646234e6
1.102888451255226e6
1.109682624493927e6
1.115907007331451e6
1.1214455512525202e6
1.1264804810613932e6
1.130650356336848e6
1.1345389261480186e6
1.137000258227534e6
1.14006436622202e6
1.1398658274564925e6
1.1438464057189182e6
1.1376789330726815e6
1.1508573199256589e6
99999.99875445473
100000.00194930764
99999.99695664777
100000.00473906852
99999.99265844926
100000.01131535739
99999.98266968854
100000.02630333607
99999.96046290465
100000.05856816027
99999.91468755162
100000.12129080326
99999.83274932473
100000.22090958206
99999.7242040659
100000.31988055613
99999.65128042192
100000.40959271097
99999.20748343093
100002.44390947322
99991.44033925691
100026.44241391838
99922.26165489819
100191.71219688246
99553.58632126598
100713.04135236789
99546.06364095586
430850.89712582127
896441.3211131813
1.05172083809257e6
1.0512131291469918e6
1.0629285349990004e6
1.0714875405360672e6
1.0798216666911705e6
1.087325229736269e6
1.0941936541439e6
1.1003630467265456e6
1.1059139088843078e6
1.1107382754925783e6
1.115022338846866e6
1.1184319500690417e6
1.1215692042248861e6
1.123357351865286e6
1.1258519582152597e6
1.1252680538815658e6
1.1291146283013744e6
1.122614112143458e6
1.1369273792551658e6
99999.99864684955
100000.0021777669
99999.99654280485
100000.00552474649
99999.9912322638
100000.01391024463
99999.97802556674
100000.03456124495
99999.94591936123
100000.08398060784
99999.87065125295
100000.19696807789
99999.70377112125
100000.43902801606
99999.35736644242
100000.93706828385
99998.59803215184
100002.28184233331
99995.58885554757
100010.37681798202
99971.38811315526
100083.08738853448
99750.98039422605
100727.33679347
97883.5361890577
106156.27034353394
83681.66810939505
359480.8458636504
837582.4356408148
1.0412526843811262e6
1.0452769326211276e6
1.0555652446672125e6
1.0638206232499948e6
1.0715533702382569e6
1.0784505833915614e6
1.0846307934394837e6
1.0900381299827148e6
1.0947313284069109e6
1.098582127275728e6
1.10173900117247e6
1.103813935147072e6
1.1053355152510388e6
1.1050881648085094e6
1.10508302050679e6
1.101187658133666e6
1.1016387377017976e6
1.0900988662839027e6
1.1043418867607794e6
99999.99860950858
100000.00229109195
99999.99631085042
100000.00602016762
99999.99024712977
100000.01584389362
99999.97431052761
100000.04160606663
99999.932700668
100000.10856059921
99999.82527336953
100000.28018179799
99999.55209026586
100000.7138855757
99998.86213583824
100001.82466571158
99997.01363013138
100005.10995212305
99990.50119499245
100019.78458716605
99953.02069146423
100122.87840771953
99654.19850832253
101000.66598518193
97081.78491313935
108911.34312544791
76123.34344565052
288708.7567877803
766080.7534589133
1.0245030905638373e6
1.0394621426421505e6
1.0476062579150384e6
1.0555939739162317e6
1.0626547246380285e6
1.0688724675322296e6
1.0742770641348595e6
1.07882284177503e6
1.0825513817525578e6
1.0853297598176564e6
1.0872962143266248e6
1.0880845519827723e6
1.0882342625137144e6
1.086661691660945e6
1.0853755345717238e6
1.0806909344044072e6
1.080257257059853e6
1.0687397298246606e6
1.0822177265143879e6
99999.99865011348
100000.00226538988
99999.99630466432
100000.006131014
99999.98988902157
100000.01674675336
99999.97224579589
100000.04604450439
99999.92347370918
100000.12725594039
99999.78803451222
100000.35333571916
99999.40996609983
100000.98722445699
99998.34171784099
100002.80443760141
99995.19489897654
100008.42450145494
99984.62506200444
100029.80526595926
99937.1070154265
100145.48037585021
99631.2538288465
101001.83181292811
97184.80594695007
108527.16589136196
76911.44609529033
222027.72965624882
682036.6721667103
998650.3908270942
1.0336584949513933e6
1.0391541377965254e6
1.0468444165685577e6
1.0531711169119817e6
1.05862580546557e6
1.0631501954746458e6
1.066693121263101e6
1.0692590245447825e6
1.0706673335685767e6
1.0709761760984624e6
1.0696867739162412e6
1.0671303928026217e6
1.0618225731313971e6
1.0553419985883266e6
1.042655265604633e6
1.0320779178737939e6
1.0026079543738901e6
1.0093215204145708e6
99999.99877340891
100000.00208044246
99999.99656578644
100000.0057612395
99999.99036254203
100000.01618879127
99999.97271999886
100000.04606866936
99999.92188448031
100000.13278906874
99999.77335904812
100000.38806721217
99999.33276957211
100001.15187098876
99998.00150810824
100003.48792975162
99993.86306095589
100010.92234955651
99980.21143089484
100036.83230398133
99928.50662021799
100147.02704491196
99673.9629242578
100786.16838238458
97971.84286982536
105789.4297936384
84227.82034090991
163274.73972727678
586890.7266172196
960393.285404315
1.027271190500039e6
1.0303905445993801e6
1.037621631189849e6
1.0431742062611752e6
1.0477916451258365e6
1.0513549453052566e6
1.053798945242018e6
1.055092886870858e6
1.0550228354499075e6
1.053590799483246e6
1.0502729876681068e6
1.0453245882998946e6
1.0374123493417855e6
1.0279234712033367e6
1.0131348012083735e6
998298.4369686341
970135.0572498912
936872.6849752917
99999.99897306666
100000.00174009684
99999.99709651474
100000.00488823379
99999.99174483042
100000.01396624645
99999.97622838586
100000.04054766556
99999.93043183445
100000.11977587015
99999.79263958287
100000.36060175805
99999.36950386889
100001.1079048795
99998.04281827681
100003.4749544458
99993.79899775071
100011.11903465583
99979.96245509386
100036.30330265505
99933.7274764549
100122.32344634928
99769.33521740821
100450.7390191986
99064.16937314827
102158.70900082622
94663.06736213739
116835.41208114661
483866.05663240043
906051.0659066895
1.0187371299537314e6
1.0215263590952689e6
1.0279647198371692e6
1.0327310472198243e6
1.0364449978603699e6
1.038973752845996e6
1.0402189557437013e6
1.0401017560704538e6
1.0383372147969125e6
1.034809215104489e6
1.0288072461438515e6
1.0201908829777989e6
1.0069593041571953e6
988885.9013461506
959181.8778561198
916035.0545827764
829852.1407798376
677513.4586272308
99999.99922693879
100000.0012849448
99999.99783499587
100000.00361578896
99999.99387652935
100000.01032646414
99999.9824125787
100000.02996895817
99999.94855350732
100000.08861886
99999.84636137143
100000.26768494135
99999.53075167784
100000.82701693129
99998.53459687733
100002.60762515843
99995.34694292434
100008.30163189954
99985.2594836804
100025.83155706344
99955.9410862053
100070.95223262701
99898.80526029474
100097.32707792065
100074.38748739165
99103.01697840696
103867.19220760083
87048.58907688392
378535.4041283787
832320.3909142452
1.0050679693213511e6
1.0127022046115795e6
1.017908588172595e6
1.0219139304763555e6
1.0246859774203349e6
1.0261385044386727e6
1.0261335057699298e6
1.0245425829845747e6
1.0210198756541399e6
1.0153395796081509e6
1.0066519118677403e6
994549.4375220774
976731.2999450612
952291.2877450325
914190.7591009573
859150.5407902702
763134.8206765172
606513.0910536579
99999.99949897516
100000.00078880035
99999.99865837708
100000.00217102886
99999.99635772765
100000.00599079036
99999.9899824294
100000.01665082054
99999.97208577832
100000.04679833952
99999.92108771914
100000.13341676095
99999.77336203621
100000.38621301526
99999.33994921103
100001.1281712908
99998.07996203558
100003.22290309846
99994.76224773476
100007.89135463288
99990.25023054928
100003.98693431653
100033.76632342265
99811.55517938168
100724.13848090525
97513.33503249956
108298.27420429388
75750.31569613922
278338.0347904868
737952.3062861537
981964.5366030716
1.0039058367837939e6
1.0075416704224433e6
1.0108144708664825e6
1.012633141763888e6
1.0129957498442996e6
1.0117261261143975e6
1.0086559797302947e6
1.003385299932186e6
995606.5508777464
984372.7763610653
969128.9649380726
947463.7737574934
918346.0351625505
875114.5139275853
815668.2868883265
720642.2013120437
587076.68530986
99999.99974799811
100000.00033834565
99999.99941681686
100000.00083849615
99999.9986676454
100000.00193197976
99999.99712639379
100000.00398744798
99999.99465122902
100000.00634228886
99999.99405897953
100000.00099700026
100000.01512167048
99999.94227231061
100000.15954787907
99999.60804780161
100000.90896421287
99997.95004916836
100004.57626361965
99989.73455197948
100023.40353472668
99945.01182597774
100133.83489012453
99658.50979767076
100907.36891071494
97497.51284507758
107342.96811731058
79850.70901000185
191028.898532309
624810.6866695541
944224.4724472942
994722.9765064934
997073.3653419575
999558.5701806718
1.000426795633202e6
999709.7208320625
997200.4780096703
992704.6528718341
985783.9810799621
976086.7523424869
962623.7175336193
944815.9145045624
920284.4341799873
888248.9427247372
842599.0349700706
783184.1956557877
693860.4240321716
582457.6677034866
99999.99993988572
100000.00000450575
99999.99998411788
99999.99985930024
100000.00035678536
99999.99900076618
100000.00223447342
99999.99504310648
100000.01039545855
99999.97848542476
100000.04362560136
99999.91231379811
100000.17469189188
99999.6536309509
100000.68415778523
99998.65126113709
100002.65623170634
99994.76793398967
100010.31656133983
99979.60979144729
100040.44191604531
99919.27489448819
100162.4955399444
99667.6997706776
100693.81566623406
98504.1194799975
103439.48226105233
92031.00557275224
124429.90801027318
498273.82979504747
885624.4110610882
983355.2442119946
986717.3629773576
988259.2246531709
988195.1668045357
986431.0370247454
982743.9777199724
976920.5365102864
968506.1497596593
957137.8204722442
941833.726013533
922071.3600831818
895611.1993723648
862037.9932439061
815955.1498958186
758664.6824687035
677133.7463755283
582792.5202691446
100000.00005764568
99999.99981935624
100000.00030026208
99999.99934572048
100000.00121366588
99999.99759588849
100000.0045511775
99999.99125472122
100000.01657283833
99999.96849898664
100000.0596165484
99999.88708732632
100000.21364916813
99999.59544751604
100000.7662766463
99998.54750645738
100002.75389893515
99994.78053831513
100009.87326630157
99981.40619518375
100034.69438448483
99936.3516841356
100112.98869134016
99811.47266359947
100271.97711713017
99752.91802817311
99612.07761872423
103477.84657911412
85663.68081108206
368502.13819021056
800356.9287577342
965446.2758666305
976399.0110699568
976957.3591372935
976028.5091405096
973286.3540631892