# vtk DataFile Version 2.0
JuliaCFD
ASCII
DATASET UNSTRUCTURED_GRID

POINTS 32898 float
0.0 0.0 -0.05
0.0125 0.0 -0.05
0.025 0.0 -0.05
0.0375 0.0 -0.05
0.05 0.0 -0.05
0.0625 0.0 -0.05
0.075 0.0 -0.05
0.0875 0.0 -0.05
0.1 0.0 -0.05
0.1125 0.0 -0.05
0.125 0.0 -0.05
0.1375 0.0 -0.05
0.15 0.0 -0.05
0.1625 0.0 -0.05
0.175 0.0 -0.05
0.1875 0.0 -0.05
0.2 0.0 -0.05
0.2125 0.0 -0.05
0.225 0.0 -0.05
0.2375 0.0 -0.05
0.25 0.0 -0.05
0.2625 0.0 -0.05
0.275 0.0 -0.05
0.2875 0.0 -0.05
0.3 0.0 -0.05
0.3125 0.0 -0.05
0.325 0.0 -0.05
0.3375 0.0 -0.05
0.35 0.0 -0.05
0.3625 0.0 -0.05
0.375 0.0 -0.05
0.3875 0.0 -0.05
0.4 0.0 -0.05
0.4125 0.0 -0.05
0.425 0.0 -0.05
0.4375 0.0 -0.05
0.45 0.0 -0.05
0.4625 0.0 -0.05
0.475 0.0 -0.05
0.4875 0.0 -0.05
0.5 0.0 -0.05
0.5125 0.0 -0.05
0.525 0.0 -0.05
0.5375 0.0 -0.05
0.55 0.0 -0.05
0.5625 0.0 -0.05
0.575 0.0 -0.05
0.5875 0.0 -0.05
0.6 0.0 -0.05
0.0 0.0125 -0.05
0.0125 0.0125 -0.05
0.025 0.0125 -0.05
0.0375 0.0125 -0.05
0.05 0.0125 -0.05
0.0625 0.0125 -0.05
0.075 0.0125 -0.05
0.0875 0.0125 -0.05
0.1 0.0125 -0.05
0.1125 0.0125 -0.05
0.125 0.0125 -0.05
0.1375 0.0125 -0.05
0.15 0.0125 -0.05
0.1625 0.0125 -0.05
0.175 0.0125 -0.05
0.1875 0.0125 -0.05
0.2 0.0125 -0.05
0.2125 0.0125 -0.05
0.225 0.0125 -0.05
0.2375 0.0125 -0.05
0.25 0.0125 -0.05
0.2625 0.0125 -0.05
0.275 0.0125 -0.05
0.2875 0.0125 -0.05
0.3 0.0125 -0.05
0.3125 0.0125 -0.05
0.325 0.0125 -0.05
0.3375 0.0125 -0.05
0.35 0.0125 -0.05
0.3625 0.0125 -0.05
0.375 0.0125 -0.05
0.3875 0.0125 -0.05
0.4 0.0125 -0.05
0.4125 0.0125 -0.05
0.425 0.0125 -0.05
0.4375 0.0125 -0.05
0.45 0.0125 -0.05
0.4625 0.0125 -0.05
0.475 0.0125 -0.05
0.4875 0.0125 -0.05
0.5 0.0125 -0.05
0.5125 0.0125 -0.05
0.525 0.0125 -0.05
0.5375 0.0125 -0.05
0.55 0.0125 -0.05
0.5625 0.0125 -0.05
0.575 0.0125 -0.05
0.5875 0.0125 -0.05
0.6 0.0125 -0.05
0.0 0.025 -0.05
0.0125 0.025 -0.05
0.025 0.025 -0.05
0.0375 0.025 -0.05
0.05 0.025 -0.05
0.0625 0.025 -0.05
0.075 0.025 -0.05
0.0875 0.025 -0.05
0.1 0.025 -0.05
0.1125 0.025 -0.05
0.125 0.025 -0.05
0.1375 0.025 -0.05
0.15 0.025 -0.05
0.1625 0.025 -0.05
0.175 0.025 -0.05
0.1875 0.025 -0.05
0.2 0.025 -0.05
0.2125 0.025 -0.05
0.225 0.025 -0.05
0.2375 0.025 -0.05
0.25 0.025 -0.05
0.2625 0.025 -0.05
0.275 0.025 -0.05
0.2875 0.025 -0.05
0.3 0.025 -0.05
0.3125 0.025 -0.05
0.325 0.025 -0.05
0.3375 0.025 -0.05
0.35 0.025 -0.05
0.3625 0.025 -0.05
0.375 0.025 -0.05
0.3875 0.025 -0.05
0.4 0.025 -0.05
0.4125 0.025 -0.05
0.425 0.025 -0.05
0.4375 0.025 -0.05
0.45 0.025 -0.05
0.4625 0.025 -0.05
0.475 0.025 -0.05
0.4875 0.025 -0.05
0.5 0.025 -0.05
0.5125 0.025 -0.05
0.525 0.025 -0.05
0.5375 0.025 -0.05
0.55 0.025 -0.05
0.5625 0.025 -0.05
0.575 0.025 -0.05
0.5875 0.025 -0.05
0.6 0.025 -0.05
0.0 0.0375 -0.05
0.0125 0.0375 -0.05
0.025 0.0375 -0.05
0.0375 0.0375 -0.05
0.05 0.0375 -0.05
0.0625 0.0375 -0.05
0.075 0.0375 -0.05
0.0875 0.0375 -0.05
0.1 0.0375 -0.05
0.1125 0.0375 -0.05
0.125 0.0375 -0.05
0.1375 0.0375 -0.05
0.15 0.0375 -0.05
0.1625 0.0375 -0.05
0.175 0.0375 -0.05
0.1875 0.0375 -0.05
0.2 0.0375 -0.05
0.2125 0.0375 -0.05
0.225 0.0375 -0.05
0.2375 0.0375 -0.05
0.25 0.0375 -0.05
0.2625 0.0375 -0.05
0.275 0.0375 -0.05
0.2875 0.0375 -0.05
0.3 0.0375 -0.05
0.3125 0.0375 -0.05
0.325 0.0375 -0.05
0.3375 0.0375 -0.05
0.35 0.0375 -0.05
0.3625 0.0375 -0.05
0.375 0.0375 -0.05
0.3875 0.0375 -0.05
0.4 0.0375 -0.05
0.4125 0.0375 -0.05
0.425 0.0375 -0.05
0.4375 0.0375 -0.05
0.45 0.0375 -0.05
0.4625 0.0375 -0.05
0.475 0.0375 -0.05
0.4875 0.0375 -0.05
0.5 0.0375 -0.05
0.5125 0.0375 -0.05
0.525 0.0375 -0.05
0.5375 0.0375 -0.05
0.55 0.0375 -0.05
0.5625 0.0375 -0.05
0.575 0.0375 -0.05
0.5875 0.0375 -0.05
0.6 0.0375 -0.05
0.0 0.05 -0.05
0.0125 0.05 -0.05
0.025 0.05 -0.05
0.0375 0.05 -0.05
0.05 0.05 -0.05
0.0625 0.05 -0.05
0.075 0.05 -0.05
0.0875 0.05 -0.05
0.1 0.05 -0.05
0.1125 0.05 -0.05
0.125 0.05 -0.05
0.1375 0.05 -0.05
0.15 0.05 -0.05
0.1625 0.05 -0.05
0.175 0.05 -0.05
0.1875 0.05 -0.05
0.2 0.05 -0.05
0.2125 0.05 -0.05
0.225 0.05 -0.05
0.2375 0.05 -0.05
0.25 0.05 -0.05
0.2625 0.05 -0.05
0.275 0.05 -0.05
0.2875 0.05 -0.05
0.3 0.05 -0.05
0.3125 0.05 -0.05
0.325 0.05 -0.05
0.3375 0.05 -0.05
0.35 0.05 -0.05
0.3625 0.05 -0.05
0.375 0.05 -0.05
0.3875 0.05 -0.05
0.4 0.05 -0.05
0.4125 0.05 -0.05
0.425 0.05 -0.05
0.4375 0.05 -0.05
0.45 0.05 -0.05
0.4625 0.05 -0.05
0.475 0.05 -0.05
0.4875 0.05 -0.05
0.5 0.05 -0.05
0.5125 0.05 -0.05
0.525 0.05 -0.05
0.5375 0.05 -0.05
0.55 0.05 -0.05
0.5625 0.05 -0.05
0.575 0.05 -0.05
0.5875 0.05 -0.05
0.6 0.05 -0.05
0.0 0.0625 -0.05
0.0125 0.0625 -0.05
0.025 0.0625 -0.05
0.0375 0.0625 -0.05
0.05 0.0625 -0.05
0.0625 0.0625 -0.05
0.075 0.0625 -0.05
0.0875 0.0625 -0.05
0.1 0.0625 -0.05
0.1125 0.0625 -0.05
0.125 0.0625 -0.05
0.1375 0.0625 -0.05
0.15 0.0625 -0.05
0.1625 0.0625 -0.05
0.175 0.0625 -0.05
0.1875 0.0625 -0.05
0.2 0.0625 -0.05
0.2125 0.0625 -0.05
0.225 0.0625 -0.05
0.2375 0.0625 -0.05
0.25 0.0625 -0.05
0.2625 0.0625 -0.05
0.275 0.0625 -0.05
0.2875 0.0625 -0.05
0.3 0.0625 -0.05
0.3125 0.0625 -0.05
0.325 0.0625 -0.05
0.3375 0.0625 -0.05
0.35 0.0625 -0.05
0.3625 0.0625 -0.05
0.375 0.0625 -0.05
0.3875 0.0625 -0.05
0.4 0.0625 -0.05
0.4125 0.0625 -0.05
0.425 0.0625 -0.05
0.4375 0.0625 -0.05
0.45 0.0625 -0.05
0.4625 0.0625 -0.05
0.475 0.0625 -0.05
0.4875 0.0625 -0.05
0.5 0.0625 -0.05
0.5125 0.0625 -0.05
0.525 0.0625 -0.05
0.5375 0.0625 -0.05
0.55 0.0625 -0.05
0.5625 0.0625 -0.05
0.575 0.0625 -0.05
0.5875 0.0625 -0.05
0.6 0.0625 -0.05
0.0 0.075 -0.05
0.0125 0.075 -0.05
0.025 0.075 -0.05
0.0375 0.075 -0.05
0.05 0.075 -0.05
0.0625 0.075 -0.05
0.075 0.075 -0.05
0.0875 0.075 -0.05
0.1 0.075 -0.05
0.1125 0.075 -0.05
0.125 0.075 -0.05
0.1375 0.075 -0.05
0.15 0.075 -0.05
0.1625 0.075 -0.05
0.175 0.075 -0.05
0.1875 0.075 -0.05
0.2 0.075 -0.05
0.2125 0.075 -0.05
0.225 0.075 -0.05
0.2375 0.075 -0.05
0.25 0.075 -0.05
0.2625 0.075 -0.05
0.275 0.075 -0.05
0.2875 0.075 -0.05
0.3 0.075 -0.05
0.3125 0.075 -0.05
0.325 0.075 -0.05
0.3375 0.075 -0.05
0.35 0.075 -0.05
0.3625 0.075 -0.05
0.375 0.075 -0.05
0.3875 0.075 -0.05
0.4 0.075 -0.05
0.4125 0.075 -0.05
0.425 0.075 -0.05
0.4375 0.075 -0.05
0.45 0.075 -0.05
0.4625 0.075 -0.05
0.475 0.075 -0.05
0.4875 0.075 -0.05
0.5 0.075 -0.05
0.5125 0.075 -0.05
0.525 0.075 -0.05
0.5375 0.075 -0.05
0.55 0.075 -0.05
0.5625 0.075 -0.05
0.575 0.075 -0.05
0.5875 0.075 -0.05
0.6 0.075 -0.05
0.0 0.0875 -0.05
0.0125 0.0875 -0.05
0.025 0.0875 -0.05
0.0375 0.0875 -0.05
0.05 0.0875 -0.05
0.0625 0.0875 -0.05
0.075 0.0875 -0.05
0.0875 0.0875 -0.05
0.1 0.0875 -0.05
0.1125 0.0875 -0.05
0.125 0.0875 -0.05
0.1375 0.0875 -0.05
0.15 0.0875 -0.05
0.1625 0.0875 -0.05
0.175 0.0875 -0.05
0.1875 0.0875 -0.05
0.2 0.0875 -0.05
0.2125 0.0875 -0.05
0.225 0.0875 -0.05
0.2375 0.0875 -0.05
0.25 0.0875 -0.05
0.2625 0.0875 -0.05
0.275 0.0875 -0.05
0.2875 0.0875 -0.05
0.3 0.0875 -0.05
0.3125 0.0875 -0.05
0.325 0.0875 -0.05
0.3375 0.0875 -0.05
0.35 0.0875 -0.05
0.3625 0.0875 -0.05
0.375 0.0875 -0.05
0.3875 0.0875 -0.05
0.4 0.0875 -0.05
0.4125 0.0875 -0.05
0.425 0.0875 -0.05
0.4375 0.0875 -0.05
0.45 0.0875 -0.05
0.4625 0.0875 -0.05
0.475 0.0875 -0.05
0.4875 0.0875 -0.05
0.5 0.0875 -0.05
0.5125 0.0875 -0.05
0.525 0.0875 -0.05
0.5375 0.0875 -0.05
0.55 0.0875 -0.05
0.5625 0.0875 -0.05
0.575 0.0875 -0.05
0.5875 0.0875 -0.05
0.6 0.0875 -0.05
0.0 0.1 -0.05
0.0125 0.1 -0.05
0.025 0.1 -0.05
0.0375 0.1 -0.05
0.05 0.1 -0.05
0.0625 0.1 -0.05
0.075 0.1 -0.05
0.0875 0.1 -0.05
0.1 0.1 -0.05
0.1125 0.1 -0.05
0.125 0.1 -0.05
0.1375 0.1 -0.05
0.15 0.1 -0.05
0.1625 0.1 -0.05
0.175 0.1 -0.05
0.1875 0.1 -0.05
0.2 0.1 -0.05
0.2125 0.1 -0.05
0.225 0.1 -0.05
0.2375 0.1 -0.05
0.25 0.1 -0.05
0.2625 0.1 -0.05
0.275 0.1 -0.05
0.2875 0.1 -0.05
0.3 0.1 -0.05
0.3125 0.1 -0.05
0.325 0.1 -0.05
0.3375 0.1 -0.05
0.35 0.1 -0.05
0.3625 0.1 -0.05
0.375 0.1 -0.05
0.3875 0.1 -0.05
0.4 0.1 -0.05
0.4125 0.1 -0.05
0.425 0.1 -0.05
0.4375 0.1 -0.05
0.45 0.1 -0.05
0.4625 0.1 -0.05
0.475 0.1 -0.05
0.4875 0.1 -0.05
0.5 0.1 -0.05
0.5125 0.1 -0.05
0.525 0.1 -0.05
0.5375 0.1 -0.05
0.55 0.1 -0.05
0.5625 0.1 -0.05
0.575 0.1 -0.05
0.5875 0.1 -0.05
0.6 0.1 -0.05
0.0 0.1125 -0.05
0.0125 0.1125 -0.05
0.025 0.1125 -0.05
0.0375 0.1125 -0.05
0.05 0.1125 -0.05
0.0625 0.1125 -0.05
0.075 0.1125 -0.05
0.0875 0.1125 -0.05
0.1 0.1125 -0.05
0.1125 0.1125 -0.05
0.125 0.1125 -0.05
0.1375 0.1125 -0.05
0.15 0.1125 -0.05
0.1625 0.1125 -0.05
0.175 0.1125 -0.05
0.1875 0.1125 -0.05
0.2 0.1125 -0.05
0.2125 0.1125 -0.05
0.225 0.1125 -0.05
0.2375 0.1125 -0.05
0.25 0.1125 -0.05
0.2625 0.1125 -0.05
0.275 0.1125 -0.05
0.2875 0.1125 -0.05
0.3 0.1125 -0.05
0.3125 0.1125 -0.05
0.325 0.1125 -0.05
0.3375 0.1125 -0.05
0.35 0.1125 -0.05
0.3625 0.1125 -0.05
0.375 0.1125 -0.05
0.3875 0.1125 -0.05
0.4 0.1125 -0.05
0.4125 0.1125 -0.05
0.425 0.1125 -0.05
0.4375 0.1125 -0.05
0.45 0.1125 -0.05
0.4625 0.1125 -0.05
0.475 0.1125 -0.05
0.4875 0.1125 -0.05
0.5 0.1125 -0.05
0.5125 0.1125 -0.05
0.525 0.1125 -0.05
0.5375 0.1125 -0.05
0.55 0.1125 -0.05
0.5625 0.1125 -0.05
0.575 0.1125 -0.05
0.5875 0.1125 -0.05
0.6 0.1125 -0.05
0.0 0.125 -0.05
0.0125 0.125 -0.05
0.025 0.125 -0.05
0.0375 0.125 -0.05
0.05 0.125 -0.05
0.0625 0.125 -0.05
0.075 0.125 -0.05
0.0875 0.125 -0.05
0.1 0.125 -0.05
0.1125 0.125 -0.05
0.125 0.125 -0.05
0.1375 0.125 -0.05
0.15 0.125 -0.05
0.1625 0.125 -0.05
0.175 0.125 -0.05
0.1875 0.125 -0.05
0.2 0.125 -0.05
0.2125 0.125 -0.05
0.225 0.125 -0.05
0.2375 0.125 -0.05
0.25 0.125 -0.05
0.2625 0.125 -0.05
0.275 0.125 -0.05
0.2875 0.125 -0.05
0.3 0.125 -0.05
0.3125 0.125 -0.05
0.325 0.125 -0.05
0.3375 0.125 -0.05
0.35 0.125 -0.05
0.3625 0.125 -0.05
0.375 0.125 -0.05
0.3875 0.125 -0.05
0.4 0.125 -0.05
0.4125 0.125 -0.05
0.425 0.125 -0.05
0.4375 0.125 -0.05
0.45 0.125 -0.05
0.4625 0.125 -0.05
0.475 0.125 -0.05
0.4875 0.125 -0.05
0.5 0.125 -0.05
0.5125 0.125 -0.05
0.525 0.125 -0.05
0.5375 0.125 -0.05
0.55 0.125 -0.05
0.5625 0.125 -0.05
0.575 0.125 -0.05
0.5875 0.125 -0.05
0.6 0.125 -0.05
0.0 0.1375 -0.05
0.0125 0.1375 -0.05
0.025 0.1375 -0.05
0.0375 0.1375 -0.05
0.05 0.1375 -0.05
0.0625 0.1375 -0.05
0.075 0.1375 -0.05
0.0875 0.1375 -0.05
[...]
CELL_DATA 16128
SCALARS P float 1
LOOKUP_TABLE default
99999.98847503483
100000.01856146225
99999.96980064004
100000.0488590605
99999.9208399432
100000.1280748653
99999.79303779911
100000.33408119618
99999.46208605217
100000.863786054
99998.6199821285
100002.18842966942
99996.57490123661
100005.24001103039
99992.32484403052
100010.25650248924
99989.32048654668
100000.96639710988
100044.12943096932
99801.305763756
100687.85356638228
97889.15317363049
106563.15749777597
81968.84318402896
171278.11624977016
599765.531113168
992971.3282987421
1.0552972015489761e6
1.0579414142932002e6
1.0718220899430928e6
1.082549847510977e6
1.0935654011279084e6
1.1039373377823613e6
1.1139278747560903e6
1.1234411421970972e6
1.1325214255088752e6
1.1411053337160381e6
1.1492527053121165e6
1.1568072918128916e6
1.1639620301438798e6
1.1702865110567613e6
1.1764165312653955e6
1.1811153030118584e6
1.186405741759252e6
1.188604153411511e6
1.1940239654795225e6
1.1914604928959338e6
1.2004467284709588e6
99999.98865659755
100000.01824446543
99999.9704019775
100000.04776303156
99999.92286954375
100000.1243470556
99999.79985821819
100000.32165764549
99999.48448888033
100000.82375685302
99998.69039798314
100002.06680994225
99996.77936187501
100004.90900645251
99992.82989794853
100009.5623753845
99990.07430991156
100000.73993765634
100042.00909480762
99810.77226511316
100658.13633488449
97968.40866104527
106348.21564540066
82412.68209662734
169177.2067623464
596766.0917248545
994382.3172621799
1.0598715765214525e6
1.0629009099909803e6
1.077233259034024e6
1.0881433222080234e6
1.0992837824654288e6
1.109746726957925e6
1.119823338274832e6
1.129426720736161e6
1.1386047765705134e6
1.1472938676613234e6
1.155552130387711e6
1.163219942784763e6
1.1704871581228988e6
1.1769174644114769e6
1.1831443799788815e6
1.1879199697019253e6
1.1932734085411157e6
1.1954909125940388e6
1.2009377094439678e6
1.1982846091120702e6
1.2073699417908906e6
99999.98866599497
100000.018337907
99999.97022172554
100000.04827316877
99999.92178971932
100000.12670346505
99999.795027221
100000.33146590697
99999.46497642067
100000.8621704489
99998.6154734907
100002.21198198706
99996.49923630587
100005.4484822846
99991.7892744616
100011.58066387312
99986.11300502373
100008.66143569833
100025.67666481501
99845.61162673184
100579.25148084515
98149.50079896695
105864.3854760226
83499.29955452195
163225.26601712842
584665.561678998
986671.4666469273
1.056862303998394e6
1.0589711345824215e6
1.0731197225179498e6
1.0837970812524993e6
1.0947563517722434e6
1.105048994024246e6
1.114957903868009e6
1.1243909503607817e6
1.1333937861427523e6
1.1419040953376926e6
1.1499807906301888e6
1.157469001768994e6
1.1645589567585674e6
1.170823640984039e6
1.1768927300936047e6
1.1815359145936037e6
1.1867694182228346e6
1.1889038786415637e6
1.1942994397903422e6
1.1915685784335015e6
1.2008102562150676e6
99999.98871512047
100000.01840303793
99999.97008374183
100000.04877075656
99999.92067268748
100000.12924678867
99999.78970046501
100000.34240529111
99999.44310606888
100000.90523450803
99998.53169740873
100002.37361060479
99996.18869364506
100006.04495705201
99990.63693183279
100013.83450155128
99981.60452549682
100017.96673002753
100005.5844077511
99890.94591910503
100469.97933808545
98416.03109662022
105121.98155071033
85247.32747995897
154583.86885416097
567598.9086434676
978359.5138949828
1.057014200789275e6
1.058468052988765e6
1.0728741715586425e6
1.0835924133012583e6
1.094581021395679e6
1.10487737756867e6
1.1147792980871855e6
1.1242028131564113e6
1.1331982593016126e6
1.14170776998303e6
1.1497915246626686e6
1.1572980331645182e6
1.1644153102197936e6
1.1707207914007183e6
1.1768360234107368e6
1.1815372108280836e6
1.1868269784105504e6
1.1890106843548268e6
1.1944764121368392e6
1.191683526050809e6
1.2011772279469313e6
99999.98887171311
100000.01828762628
99999.97024536904
100000.04876093754
99999.92040989011
100000.13033066528
99999.78686825123
100000.34904136787
99999.42867662021
100000.93538753768
99998.47027891934
100002.49678017297
99995.94319180018
100006.5349865609
99989.64731417854
100015.87427848131
99977.25957490962
100027.5860324904
99983.205519267
99945.07481462938
100331.44054767686
98770.92477733742
104110.52682343402
87736.35242784931
143528.2578815689
544095.0166226587
965328.266788219
1.0554200747332743e6
1.05570434649033e6
1.0700357404609837e6
1.0805375634335456e6
1.0913321284896345e6
1.1014365840546768e6
1.1111450461781737e6
1.1203744721242741e6
1.1291737687696547e6
1.1374872093032233e6
1.1453747299653438e6
1.1526893899938113e6
1.15961706450849e6
1.1657443516856441e6
1.1716847312489736e6
1.1762317241253431e6
1.1813734022647487e6
1.183428909339903e6
1.188819117539072e6
1.1858482455569129e6
1.1956026647058884e6
99999.98919758054
100000.01785229768
99999.9709401353
100000.04779470668
99999.92180518997
100000.12847697319
99999.789201277
100000.34654410822
99999.43036324283
100000.93711892686
99998.45879559238
100002.53273874403
99995.8484404583
100006.76869968223
99989.08135581334
100017.24693646403
99973.86480443586
100036.14721632857
99960.955284012
100003.70559204732
100171.5663189838
99200.81459988577
102863.19708049895
90955.90049253541
130851.97874387374
514867.11764359265
948403.8920675159
1.0539486176317795e6
1.0532627012098278e6
1.0676167001594608e6
1.0780168346301524e6
1.0886965694691574e6
1.0986785398654225e6
1.1082534549832991e6
1.1173461446861133e6
1.1260074966606246e6
1.1341872597991289e6
1.1419473137091154e6
1.1491473804376188e6
1.1559723565688187e6
1.1620191696115579e6
1.1678929748474725e6
1.172402226761066e6
1.1775192740634566e6
1.1795603718254988e6
1.1849943112028234e6
1.181895957662038e6
1.1920256593728845e6
99999.98972476128
100000.01702176765
99999.9722929575
100000.04562865722
99999.9252954016
100000.12287619834
99999.79817376699
100000.3322182217
99999.45307815158
100000.90147286841
99998.51359524968
100002.45156390152
99995.95950808436
100006.64397753497
99989.1306933723
100017.58767104986
99972.12900579005
100042.24460682334
99941.70436179331
100060.87413279743
100003.36427935665
99678.71961796701
101450.37116974569
94810.25059649262
117353.34963730809
479963.2945082431
926292.7073776395
1.0514753832127324e6
1.050064499833598e6
1.0642206165722501e6
1.0744286031100792e6
1.0848785206153963e6
1.0946343664228225e6
1.1039703802792602e6
1.1128189704236493e6
1.1212296115672155e6
1.1291556121039e6
1.136658548998557e6
1.1436031390992843e6
1.1501710302847526e6
1.1559683752687427e6
1.1615906542738923e6
1.1658629461028012e6
1.1707479490935095e6
1.1725641487154618e6
1.1778660754691279e6
1.1744610084202434e6
1.184984457764947e6
99999.9904445512
100000.015808492
99999.97428160493
100000.04229841713
99999.9308218635
100000.11362121635
99999.81364512382
100000.3062586081
99999.49660358847
100000.82853813558
99998.6352224605
100002.25064548805
99996.28491320777
100006.13658860001
99989.8601413571
100016.72994788185
99972.47440869494
100044.82579025059
99928.10068918642
100110.0004378263
99843.759227375
100162.78163737612
99989.665108757
99044.39823718595
104043.90447520143
439920.4083440128
898388.9164037483
1.0479558598267769e6
1.0466650728479727e6
1.060454102956035e6
1.070511594941285e6
1.0807226126453904e6
1.0902484437718631e6
1.099335150812818e6
1.107926907093648e6
1.1160725111498078e6
1.123731006370598e6
1.1309661795785055e6
1.137651435082995e6
1.143969832323138e6
1.1495428331862378e6
1.1549625350695266e6
1.1590758461313474e6
1.1638386839548098e6
1.165560539249078e6
1.1708832817138908e6
1.1672641298104585e6
1.178341359578647e6
99999.99130950231
100000.0143093516
99999.97674192584
100000.03811087854
99999.93784007129
100000.10169984843
99999.83384986776
100000.27182072472
99999.55534801117
100000.72814132962
99998.80662293555
100001.95907037704
99996.77633924663
100005.32352642753
99991.1561169473
100014.8163250546
99974.80420436885
100043.66290846211
99921.6420674537
100145.60311078987
99710.53164175055
100600.42419630253
98636.93119248319
103223.49178516149
92060.23444786515
395436.4681169439
863719.9463599183
1.0426513722139886e6
1.0429577019898293e6
1.0560439410960833e6
1.0659430013598597e6
1.0758417196011932e6
1.0850722475991938e6
1.0938365805045206e6
1.1020922645647882e6
1.1098845463539509e6
1.1171753780249495e6
1.1240267217523765e6
1.1303149043651936e6
1.1362173756935378e6
1.1413606774175207e6
1.1463256300000842e6
1.1499679857451683e6
1.1542467281187393e6
1.1554516228966294e6
1.1604074705222459e6
1.1561453785380737e6
1.167759671715014e6
99999.99224806088
100000.0126753596
99999.97941806533
100000.03355084729
99999.94548050842
100000.0887113268
99999.85588233957
100000.23419991492
99999.61969944288
100000.6176799285
99998.99645825328
100001.63289869456
99997.33451836149
100004.37783088376
99992.72471297163
100012.32465015576
99978.40778817529
100039.61683014136
99921.99445004424
100164.90908711612
99618.44515236709
100936.70168726663
97564.49842097737
106757.50153915232
82608.27652508704
347583.9218749195
821438.9242366116
1.0347610226017548e6
1.0391274175527086e6
1.0511022313708907e6
1.0608759811037655e6
1.0704176447340243e6
1.0793155421936514e6
1.087712573696888e6
1.0955825927565552e6
1.1029675041054767e6
1.109834001201283e6
1.1162457341174923e6
1.122088292852923e6
1.1275435762102227e6
1.1322588168833624e6
1.1368217670302142e6
1.140122124370053e6
1.1441308047927783e6
1.1451315619439678e6
1.1500777961918102e6
1.1455052424299675e6
1.1579504515076485e6
99999.9931873311
100000.01106252456
99999.98204528246
100000.02912304316
99999.95283035807
100000.07635031015
99999.87662519411
100000.19915907049
99999.67901584724
100000.51680675328
99999.16848301134
100001.33878926489
99997.83745001857
100003.52087918224
99994.1699398645
100009.94578111183
99982.13309238602
100034.44367871426
99927.02243013609
100168.5716477367
99575.7807874337
101126.0092034098
96927.98888456193
109003.56565298745
76793.43611530958
297792.91065584874
770786.7394645852
1.0230904613723508e6
1.0352249014617788e6
1.0455941037933035e6
1.0552627725083546e6
1.0643872266027196e6
1.0728948988944364e6
1.080856613178607e6
1.0882619727218726e6
1.0951458694699998e6
1.1014740113347622e6
1.107303374554569e6
1.1125147304040045e6
1.1172757839735085e6
1.1212225845885125e6
1.1249193111923116e6
1.1272312727438428e6
1.1301415998414238e6
1.1298470515193893e6
1.133680117522077e6
1.1274672679574029e6
1.1405081827162274e6
99999.994076113
100000.0095799216
99999.98443879766
100000.02517880799
99999.95925112882
100000.06580874133
99999.89386245338
100000.17084933017
99999.72550013538
100000.44021393442
99999.29495531542
100001.12914922295
99998.18623863833
100002.93845420302
99995.14561323366
100008.31406015821
99984.84857386968
100030.05088498823
99933.82570837681
100159.75362743651
99583.09620768635
101144.00921872217
96824.11509258945
109480.36042058322
75354.05893023551
247845.75918673596
711326.5796366202
1.0061426960858719e6
1.0312778057059296e6
1.0395730746296704e6
1.0491457622948217e6
1.0578037430532165e6
1.065868931148562e6
1.0733353604064279e6
1.0802076303419021e6
1.0865139955187642e6
1.0922206999654789e6
1.0973827385812725e6
1.1018867709969156e6
1.1059048478499309e6
1.1090982851374103e6
1.1120506036861865e6
1.1136902215300037e6
1.1160354207579498e6
1.1153464969119113e6
1.119043088902819e6
1.112484276176557e6
1.1266339791019543e6
99999.99489929454
100000.00825508033
99999.98655432597
100000.02179465684
99999.96460930872
100000.05732759445
99999.90714545148
100000.15013282081
99999.75745000644
100000.391341654
99999.36880745151
100001.01866159547
99998.35018921627
100002.69474587808
99995.51763564447
100007.70670664906
99985.98486414526
100027.5737498734
99940.16555318995
100142.50455575898
99633.15347831258
100999.70129398612
97240.52927762008
108205.8617838382
78329.9465557452
199794.02056117504
643107.126199981
982091.4257116751
1.0271398020270972e6
1.0331044276785058e6
1.0425364059780678e6
1.0506814166415327e6
1.0582432108837122e6
1.0651448670432079e6
1.0713992523068797e6
1.0770229466635927e6
1.0819726473545337e6
1.086286067289831e6
1.0898277133771833e6
1.0927325324177714e6
1.0946080924425956e6
1.095964209833211e6
1.0955946933294542e6
1.0954739851068615e6
1.0915048237712309e6
1.091831810128393e6
1.08026821798226e6
1.094321661382557e6
99999.99567707998
100000.00703285998
99999.98849157646
100000.0187609779
99999.96930760787
100000.05011892862
99999.9179809986
100000.13414663341
99999.78024494198
100000.36019042971
99999.40840873974
100000.97407777756
99998.38834851047
100002.68766388201
99995.45519657056
100007.86246834701
99985.88648274263
100026.72969844686
99945.58953275811
100120.14264973787
99712.72575786359
100737.26336889944
98040.9229389308
105619.75509646353
84972.09457007077
156026.64555327594
566896.3387752769
948829.8388620993
1.0223563307538369e6
1.0263038881198628e6
1.0354604407686983e6
1.0430599344726136e6
1.0500591315352449e6
1.056332864125223e6
1.0618946497725255e6
1.0667493834660267e6
1.070844637736826e6
1.074205239610574e6
1.0766885381382373e6
1.0784197982416141e6
1.0790253904737292e6
1.0790287926130677e6
1.0773459422021077e6
1.0759524640999092e6
1.0711861765760544e6
1.0706162018920048e6
1.0590493800903854e6
1.072341034241026e6
99999.99644833022
100000.0058117219
99999.99043281046
100000.01569988929
99999.97407450232
100000.04275143561
99999.92914051842
100000.11753766175
99999.8041689518
100000.32711056009
99999.45109337047
100000.92499718028
99998.43220268375
100002.67501638542
99995.39512245676
100008.01945841423
99985.80458495187
100025.69742716465
99951.97163382216
100093.59907810403
99807.36084797706
100422.09733988068
99015.63264630096
102488.43304040123
93634.68543665991
119309.49628875987
484437.8340383366
904056.1996633256
1.015929860195503e6
1.0193109364195394e6
1.0279329202287436e6
1.034971698582252e6
1.0413500198739913e6
1.0469331435117305e6
1.0517226541970691e6
1.0557062306402319e6
1.058809541654965e6
1.0610237328277833e6
1.0621572939455109e6
1.062256403026249e6
1.0608161136982678e6
1.0581532269193884e6
1.052788400188691e6
1.0462687401029182e6
1.0335991090733643e6
1.0229814893096186e6
993619.9822190756
1.000117828302506e6
99999.9972443335
100000.0045045251
99999.99253739271
100000.01227371217
99999.97957642235
100000.03388891782
99999.94326956962
100000.0950833046
99999.83948833463
100000.27201256396
99999.53600465735
100000.79559876616
99998.62753047582
100002.37960024296
99995.85593114971
100007.23366178316
99987.38173783205
100021.86388554607
99962.70255525064
100061.32824887853
99905.97358388056
100118.11215707446
99931.9091178642
99664.82616345456
101943.54672898435
92595.0294452984
398741.5161417501
845558.1438942702
1.006071216181952e6
1.0122514899367489e6
1.0199673396355606e6
1.026454310536191e6
1.0321645539384929e6
1.0370063060487465e6
1.0409598813736339e6
1.043995285192685e6
1.0460154651048206e6
1.0469791407639174e6
1.0466596984300801e6
1.04504899813985e6
1.0416161203772051e6
1.0366006321374374e6
1.0286698349002653e6
1.0191762888995298e6
1.0044139297217655e6
989550.3025816776
961410.6099246391
928334.7702700002
99999.99806466147
100000.00309711437
99999.99483832488
100000.00839388945
99999.9860186867
100000.02306917717
99999.96137866139
100000.06462184219
99999.89076642493
100000.18538547125
99999.68277479341
100000.54576726769
99999.0554322377
100001.63967226306
99997.15434789701
100004.9022360534
99991.71552311923
100013.39670401553
99980.33664502045
100021.7409339972
100001.51283266688
99871.68035704891
100599.85367621425
97802.78260008748
107470.82554709712
78075.32560878155
314076.5230838032
771890.247683379
990115.8741024056
1.0051833617173285e6
1.0115967006551855e6
1.0175534527260645e6
1.0225609894672605e6
1.0266197100397727e6
1.0296823800349738e6
1.0316985373424713e6
1.0325397385300207e6
1.0321172730431972e6
1.0301355733980977e6
1.0264674836826181e6
1.0203986518071269e6
1.0117767581477991e6
998611.7297229392
980657.1581615035
951189.4772634747
908336.8803914804
822860.0299968243
671488.0734784944
99999.99886710415
100000.00167507793
99999.99719296329
100000.00432444493
99999.9929379787
100000.01112631029
99999.98198605758
100000.02879363863
99999.95332363328
100000.07549191041
99999.876904236
100000.20076413266
99999.6722730518
100000.52997097587
99999.16325876511
100001.24194299646
99998.42946971349
100000.9931583508
100003.43900438533
99978.32925541018
100084.18713801185
99712.65257155546
100915.7574200956
97186.08548864469
108804.47971150237
75742.17996511808
235354.49863528772
683203.5693477995
964731.9098055906
998015.790667128
1.0029231674045376e6
1.0083416308261066e6
1.0126209699433704e6
1.0158649678738465e6
1.0179994081354033e6
1.0189523247613327e6
1.0185641921012234e6
1.0166960396064942e6
1.0129922687178411e6
1.0072164958774684e6
998517.0500830441
986476.9150775443
968813.2823604145
944598.3875936677
906881.2104866923
852280.964432922
757163.4576555768
601508.0112779147
99999.99957807914
100000.00040139654
99999.99931985582
100000.00061260675
99999.9993227104
99999.99997675935
100000.00148598923
99999.99441661956
100000.01426118029
99999.96676654648
100000.07207188982
99999.84839156967
100000.31176681835
99999.36469213979
100001.29153572838
99997.35689193897
100005.4861419701
99988.33870288056
100025.55974099296
99941.68587531996
100138.49846642929
99655.82553060885
100887.87858301135
97650.06451938098
106606.10907525085
82692.09977622773
167461.14843204743
581548.6686238508
926092.3279147444
990206.2095386264
994123.7510820078
998909.1195175116
1.0024389527484862e6
1.0048451427013298e6
1.0060309693737942e6
1.0059029081934858e6
1.0042693310646426e6
1.0009512745556145e6
995536.8235211612
987708.4182826435
976518.5606815644
961402.647179636
939971.6664015886
911166.3336175419
868423.303681706
809504.9116039703
715433.8078687
582730.8037144693
100000.00012007468
99999.99945171252
100000.0009114097
99999.99786437467
100000.00403517527
99999.99180601555
100000.01570318948
99999.9695061539
100000.05817122101
99999.88888178916
100000.21105624424
99999.59905408767
100000.76099570068
99998.5535502834
100002.75456664304
99994.73611820843
100010.10407450024
99980.48356268724
100037.98105186713
99925.31856315056
100148.49988812867
99699.99589226018
100615.9940870628
98711.5183022946
102807.90388056355
94013.98304754398
115584.07426714787
471185.0079829511
869886.2155396083
980066.2059894352
985343.209304
989320.4786208443
992096.7597803735
993659.6372197438
993899.9227866937
992703.0399786667
989852.2888474638
985138.0325710123
978111.7216827027
968410.6231341333
955045.3753131095
937426.338039732
913197.5848126368
881545.2548235584
836453.005108438
777625.4179097352
689242.8560557744
578650.7620909995
100000.00044370699
99999.99893736135
100000.0017698345
99999.99647067084
100000.00633552801
99999.98804304525
100000.0218903234
99999.9593684228
100000.07478861927
99999.86173685757
100000.25521830462
99999.52782577333
100000.87416220279
99998.37888233198
100003.00891803038
99994.41303756417
100010.35963110068
99980.86752784242
100035.00736322124
99937.0763237362
100109.09728802816
99823.62414364569
100239.18075642822
99833.746677488
99414.28186733004
103953.68983169843
84540.04679410464
359335.35284022556
792308.8398066486
964124.8509082948
976538.6566186362
979597.77112816
981653.4340645163
982396.0746226051
981720.7276108307
979496.434820296
975493.4291056473
969482.7530530776
961000.1592971883
949671.7887894056
934515.187487727
914995.9288845679
888895.0196649134
855761.8654340268
810280.3016591017
753620.639303767
672996.2898758653
579455.1645869737
100000.00054893135
99999.99885499889
100000.00189718229
99999.99642575691
100000.00623209482
99999.98867003665
100000.02008475493
99999.9639197526
100000.06430424933
99999.88489521529
100000.20556160163
99999.63238956098
100000.65669407921
99998.82768982685
100002.08676061698
99996.30491595122
100006.4743904454
99988.87525689726
100018.40129251915
99971.82713983815
100035.49099552621
99981.9230386192
99892.00630331955
100612.43554105367
97629.4624577034
108265.69034488112
75280.29390505083
255410.37400879292
692457.6068215515
937443.4640266614
967438.5376991802
969803.149750277
971180.4611883062
971145.5179163197
969603.1300409434
966416.4730282088