# vtk DataFile Version 2.0
JuliaCFD
ASCII
DATASET UNSTRUCTURED_GRID

POINTS 32898 float
0.0 0.0 -0.05
0.0125 0.0 -0.05
0.025 0.0 -0.05
0.0375 0.0 -0.05
0.05 0.0 -0.05
0.0625 0.0 -0.05
0.075 0.0 -0.05
0.0875 0.0 -0.05
0.1 0.0 -0.05
0.1125 0.0 -0.05
0.125 0.0 -0.05
0.1375 0.0 -0.05
0.15 0.0 -0.05
0.1625 0.0 -0.05
0.175 0.0 -0.05
0.1875 0.0 -0.05
0.2 0.0 -0.05
0.2125 0.0 -0.05
0.225 0.0 -0.05
0.2375 0.0 -0.05
0.25 0.0 -0.05
0.2625 0.0 -0.05
0.275 0.0 -0.05
0.2875 0.0 -0.05
0.3 0.0 -0.05
0.3125 0.0 -0.05
0.325 0.0 -0.05
0.3375 0.0 -0.05
0.35 0.0 -0.05
0.3625 0.0 -0.05
0.375 0.0 -0.05
0.3875 0.0 -0.05
0.4 0.0 -0.05
0.4125 0.0 -0.05
0.425 0.0 -0.05
0.4375 0.0 -0.05
0.45 0.0 -0.05
0.4625 0.0 -0.05
0.475 0.0 -0.05
0.4875 0.0 -0.05
0.5 0.0 -0.05
0.5125 0.0 -0.05
0.525 0.0 -0.05
0.5375 0.0 -0.05
0.55 0.0 -0.05
0.5625 0.0 -0.05
0.575 0.0 -0.05
0.5875 0.0 -0.05
0.6 0.0 -0.05
0.0 0.0125 -0.05
0.0125 0.0125 -0.05
0.025 0.0125 -0.05
0.0375 0.0125 -0.05
0.05 0.0125 -0.05
0.0625 0.0125 -0.05
0.075 0.0125 -0.05
0.0875 0.0125 -0.05
0.1 0.0125 -0.05
0.1125 0.0125 -0.05
0.125 0.0125 -0.05
0.1375 0.0125 -0.05
0.15 0.0125 -0.05
0.1625 0.0125 -0.05
0.175 0.0125 -0.05
0.1875 0.0125 -0.05
0.2 0.0125 -0.05
0.2125 0.0125 -0.05
0.225 0.0125 -0.05
0.2375 0.0125 -0.05
0.25 0.0125 -0.05
0.2625 0.0125 -0.05
0.275 0.0125 -0.05
0.2875 0.0125 -0.05
0.3 0.0125 -0.05
0.3125 0.0125 -0.05
0.325 0.0125 -0.05
0.3375 0.0125 -0.05
0.35 0.0125 -0.05
0.3625 0.0125 -0.05
0.375 0.0125 -0.05
0.3875 0.0125 -0.05
0.4 0.0125 -0.05
0.4125 0.0125 -0.05
0.425 0.0125 -0.05
0.4375 0.0125 -0.05
0.45 0.0125 -0.05
0.4625 0.0125 -0.05
0.475 0.0125 -0.05
0.4875 0.0125 -0.05
0.5 0.0125 -0.05
0.5125 0.0125 -0.05
0.525 0.0125 -0.05
0.5375 0.0125 -0.05
0.55 0.0125 -0.05
0.5625 0.0125 -0.05
0.575 0.0125 -0.05
0.5875 0.0125 -0.05
0.6 0.0125 -0.05
0.0 0.025 -0.05
0.0125 0.025 -0.05
0.025 0.025 -0.05
0.0375 0.025 -0.05
0.05 0.025 -0.05
0.0625 0.025 -0.05
0.075 0.025 -0.05
0.0875 0.025 -0.05
0.1 0.025 -0.05
0.1125 0.025 -0.05
0.125 0.025 -0.05
0.1375 0.025 -0.05
0.15 0.025 -0.05
0.1625 0.025 -0.05
0.175 0.025 -0.05
0.1875 0.025 -0.05
0.2 0.025 -0.05
0.2125 0.025 -0.05
0.225 0.025 -0.05
0.2375 0.025 -0.05
0.25 0.025 -0.05
0.2625 0.025 -0.05
0.275 0.025 -0.05
0.2875 0.025 -0.05
0.3 0.025 -0.05
0.3125 0.025 -0.05
0.325 0.025 -0.05
0.3375 0.025 -0.05
0.35 0.025 -0.05
0.3625 0.025 -0.05
0.375 0.025 -0.05
0.3875 0.025 -0.05
0.4 0.025 -0.05
0.4125 0.025 -0.05
0.425 0.025 -0.05
0.4375 0.025 -0.05
0.45 0.025 -0.05
0.4625 0.025 -0.05
0.475 0.025 -0.05
0.4875 0.025 -0.05
0.5 0.025 -0.05
0.5125 0.025 -0.05
0.525 0.025 -0.05
0.5375 0.025 -0.05
0.55 0.025 -0.05
0.5625 0.025 -0.05
0.575 0.025 -0.05
0.5875 0.025 -0.05
0.6 0.025 -0.05
0.0 0.0375 -0.05
0.0125 0.0375 -0.05
0.025 0.0375 -0.05
0.0375 0.0375 -0.05
0.05 0.0375 -0.05
0.0625 0.0375 -0.05
0.075 0.0375 -0.05
0.0875 0.0375 -0.05
0.1 0.0375 -0.05
0.1125 0.0375 -0.05
0.125 0.0375 -0.05
0.1375 0.0375 -0.05
0.15 0.0375 -0.05
0.1625 0.0375 -0.05
0.175 0.0375 -0.05
0.1875 0.0375 -0.05
0.2 0.0375 -0.05
0.2125 0.0375 -0.05
0.225 0.0375 -0.05
0.2375 0.0375 -0.05
0.25 0.0375 -0.05
0.2625 0.0375 -0.05
0.275 0.0375 -0.05
0.2875 0.0375 -0.05
0.3 0.0375 -0.05
0.3125 0.0375 -0.05
0.325 0.0375 -0.05
0.3375 0.0375 -0.05
0.35 0.0375 -0.05
0.3625 0.0375 -0.05
0.375 0.0375 -0.05
0.3875 0.0375 -0.05
0.4 0.0375 -0.05
0.4125 0.0375 -0.05
0.425 0.0375 -0.05
0.4375 0.0375 -0.05
0.45 0.0375 -0.05
0.4625 0.0375 -0.05
0.475 0.0375 -0.05
0.4875 0.0375 -0.05
0.5 0.0375 -0.05
0.5125 0.0375 -0.05
0.525 0.0375 -0.05
0.5375 0.0375 -0.05
0.55 0.0375 -0.05
0.5625 0.0375 -0.05
0.575 0.0375 -0.05
0.5875 0.0375 -0.05
0.6 0.0375 -0.05
0.0 0.05 -0.05
0.0125 0.05 -0.05
0.025 0.05 -0.05
0.0375 0.05 -0.05
0.05 0.05 -0.05
0.0625 0.05 -0.05
0.075 0.05 -0.05
0.0875 0.05 -0.05
0.1 0.05 -0.05
0.1125 0.05 -0.05
0.125 0.05 -0.05
0.1375 0.05 -0.05
0.15 0.05 -0.05
0.1625 0.05 -0.05
0.175 0.05 -0.05
0.1875 0.05 -0.05
0.2 0.05 -0.05
0.2125 0.05 -0.05
0.225 0.05 -0.05
0.2375 0.05 -0.05
0.25 0.05 -0.05
0.2625 0.05 -0.05
0.275 0.05 -0.05
0.2875 0.05 -0.05
0.3 0.05 -0.05
0.3125 0.05 -0.05
0.325 0.05 -0.05
0.3375 0.05 -0.05
0.35 0.05 -0.05
0.3625 0.05 -0.05
0.375 0.05 -0.05
0.3875 0.05 -0.05
0.4 0.05 -0.05
0.4125 0.05 -0.05
0.425 0.05 -0.05
0.4375 0.05 -0.05
0.45 0.05 -0.05
0.4625 0.05 -0.05
0.475 0.05 -0.05
0.4875 0.05 -0.05
0.5 0.05 -0.05
0.5125 0.05 -0.05
0.525 0.05 -0.05
0.5375 0.05 -0.05
0.55 0.05 -0.05
0.5625 0.05 -0.05
0.575 0.05 -0.05
0.5875 0.05 -0.05
0.6 0.05 -0.05
0.0 0.0625 -0.05
0.0125 0.0625 -0.05
0.025 0.0625 -0.05
0.0375 0.0625 -0.05
0.05 0.0625 -0.05
0.0625 0.0625 -0.05
0.075 0.0625 -0.05
0.0875 0.0625 -0.05
0.1 0.0625 -0.05
0.1125 0.0625 -0.05
0.125 0.0625 -0.05
0.1375 0.0625 -0.05
0.15 0.0625 -0.05
0.1625 0.0625 -0.05
0.175 0.0625 -0.05
0.1875 0.0625 -0.05
0.2 0.0625 -0.05
0.2125 0.0625 -0.05
0.225 0.0625 -0.05
0.2375 0.0625 -0.05
0.25 0.0625 -0.05
0.2625 0.0625 -0.05
0.275 0.0625 -0.05
0.2875 0.0625 -0.05
0.3 0.0625 -0.05
0.3125 0.0625 -0.05
0.325 0.0625 -0.05
0.3375 0.0625 -0.05
0.35 0.0625 -0.05
0.3625 0.0625 -0.05
0.375 0.0625 -0.05
0.3875 0.0625 -0.05
0.4 0.0625 -0.05
0.4125 0.0625 -0.05
0.425 0.0625 -0.05
0.4375 0.0625 -0.05
0.45 0.0625 -0.05
0.4625 0.0625 -0.05
0.475 0.0625 -0.05
0.4875 0.0625 -0.05
0.5 0.0625 -0.05
0.5125 0.0625 -0.05
0.525 0.0625 -0.05
0.5375 0.0625 -0.05
0.55 0.0625 -0.05
0.5625 0.0625 -0.05
0.575 0.0625 -0.05
0.5875 0.0625 -0.05
0.6 0.0625 -0.05
0.0 0.075 -0.05
0.0125 0.075 -0.05
0.025 0.075 -0.05
0.0375 0.075 -0.05
0.05 0.075 -0.05
0.0625 0.075 -0.05
0.075 0.075 -0.05
0.0875 0.075 -0.05
0.1 0.075 -0.05
0.1125 0.075 -0.05
0.125 0.075 -0.05
0.1375 0.075 -0.05
0.15 0.075 -0.05
0.1625 0.075 -0.05
0.175 0.075 -0.05
0.1875 0.075 -0.05
0.2 0.075 -0.05
0.2125 0.075 -0.05
0.225 0.075 -0.05
0.2375 0.075 -0.05
0.25 0.075 -0.05
0.2625 0.075 -0.05
0.275 0.075 -0.05
0.2875 0.075 -0.05
0.3 0.075 -0.05
0.3125 0.075 -0.05
0.325 0.075 -0.05
0.3375 0.075 -0.05
0.35 0.075 -0.05
0.3625 0.075 -0.05
0.375 0.075 -0.05
0.3875 0.075 -0.05
0.4 0.075 -0.05
0.4125 0.075 -0.05
0.425 0.075 -0.05
0.4375 0.075 -0.05
0.45 0.075 -0.05
0.4625 0.075 -0.05
0.475 0.075 -0.05
0.4875 0.075 -0.05
0.5 0.075 -0.05
0.5125 0.075 -0.05
0.525 0.075 -0.05
0.5375 0.075 -0.05
0.55 0.075 -0.05
0.5625 0.075 -0.05
0.575 0.075 -0.05
0.5875 0.075 -0.05
0.6 0.075 -0.05
0.0 0.0875 -0.05
0.0125 0.0875 -0.05
0.025 0.0875 -0.05
0.0375 0.0875 -0.05
0.05 0.0875 -0.05
0.0625 0.0875 -0.05
0.075 0.0875 -0.05
0.0875 0.0875 -0.05
0.1 0.0875 -0.05
0.1125 0.0875 -0.05
0.125 0.0875 -0.05
0.1375 0.0875 -0.05
0.15 0.0875 -0.05
0.1625 0.0875 -0.05
0.175 0.0875 -0.05
0.1875 0.0875 -0.05
0.2 0.0875 -0.05
0.2125 0.0875 -0.05
0.225 0.0875 -0.05
0.2375 0.0875 -0.05
0.25 0.0875 -0.05
0.2625 0.0875 -0.05
0.275 0.0875 -0.05
0.2875 0.0875 -0.05
0.3 0.0875 -0.05
0.3125 0.0875 -0.05
0.325 0.0875 -0.05
0.3375 0.0875 -0.05
0.35 0.0875 -0.05
0.3625 0.0875 -0.05
0.375 0.0875 -0.05
0.3875 0.0875 -0.05
0.4 0.0875 -0.05
0.4125 0.0875 -0.05
0.425 0.0875 -0.05
0.4375 0.0875 -0.05
0.45 0.0875 -0.05
0.4625 0.0875 -0.05
0.475 0.0875 -0.05
0.4875 0.0875 -0.05
0.5 0.0875 -0.05
0.5125 0.0875 -0.05
0.525 0.0875 -0.05
0.5375 0.0875 -0.05
0.55 0.0875 -0.05
0.5625 0.0875 -0.05
0.575 0.0875 -0.05
0.5875 0.0875 -0.05
0.6 0.0875 -0.05
0.0 0.1 -0.05
0.0125 0.1 -0.05
0.025 0.1 -0.05
0.0375 0.1 -0.05
0.05 0.1 -0.05
0.0625 0.1 -0.05
0.075 0.1 -0.05
0.0875 0.1 -0.05
0.1 0.1 -0.05
0.1125 0.1 -0.05
0.125 0.1 -0.05
0.1375 0.1 -0.05
0.15 0.1 -0.05
0.1625 0.1 -0.05
0.175 0.1 -0.05
0.1875 0.1 -0.05
0.2 0.1 -0.05
0.2125 0.1 -0.05
0.225 0.1 -0.05
0.2375 0.1 -0.05
0.25 0.1 -0.05
0.2625 0.1 -0.05
0.275 0.1 -0.05
0.2875 0.1 -0.05
0.3 0.1 -0.05
0.3125 0.1 -0.05
0.325 0.1 -0.05
0.3375 0.1 -0.05
0.35 0.1 -0.05
0.3625 0.1 -0.05
0.375 0.1 -0.05
0.3875 0.1 -0.05
0.4 0.1 -0.05
0.4125 0.1 -0.05
0.425 0.1 -0.05
0.4375 0.1 -0.05
0.45 0.1 -0.05
0.4625 0.1 -0.05
0.475 0.1 -0.05
0.4875 0.1 -0.05
0.5 0.1 -0.05
0.5125 0.1 -0.05
0.525 0.1 -0.05
0.5375 0.1 -0.05
0.55 0.1 -0.05
0.5625 0.1 -0.05
0.575 0.1 -0.05
0.5875 0.1 -0.05
0.6 0.1 -0.05
0.0 0.1125 -0.05
0.0125 0.1125 -0.05
0.025 0.1125 -0.05
0.0375 0.1125 -0.05
0.05 0.1125 -0.05
0.0625 0.1125 -0.05
0.075 0.1125 -0.05
0.0875 0.1125 -0.05
0.1 0.1125 -0.05
0.1125 0.1125 -0.05
0.125 0.1125 -0.05
0.1375 0.1125 -0.05
0.15 0.1125 -0.05
0.1625 0.1125 -0.05
0.175 0.1125 -0.05
0.1875 0.1125 -0.05
0.2 0.1125 -0.05
0.2125 0.1125 -0.05
0.225 0.1125 -0.05
0.2375 0.1125 -0.05
0.25 0.1125 -0.05
0.2625 0.1125 -0.05
0.275 0.1125 -0.05
0.2875 0.1125 -0.05
0.3 0.1125 -0.05
0.3125 0.1125 -0.05
0.325 0.1125 -0.05
0.3375 0.1125 -0.05
0.35 0.1125 -0.05
0.3625 0.1125 -0.05
0.375 0.1125 -0.05
0.3875 0.1125 -0.05
0.4 0.1125 -0.05
0.4125 0.1125 -0.05
0.425 0.1125 -0.05
0.4375 0.1125 -0.05
0.45 0.1125 -0.05
0.4625 0.1125 -0.05
0.475 0.1125 -0.05
0.4875 0.1125 -0.05
0.5 0.1125 -0.05
0.5125 0.1125 -0.05
0.525 0.1125 -0.05
0.5375 0.1125 -0.05
0.55 0.1125 -0.05
0.5625 0.1125 -0.05
0.575 0.1125 -0.05
0.5875 0.1125 -0.05
0.6 0.1125 -0.05
0.0 0.125 -0.05
0.0125 0.125 -0.05
0.025 0.125 -0.05
0.0375 0.125 -0.05
0.05 0.125 -0.05
0.0625 0.125 -0.05
0.075 0.125 -0.05
0.0875 0.125 -0.05
0.1 0.125 -0.05
0.1125 0.125 -0.05
0.125 0.125 -0.05
0.1375 0.125 -0.05
0.15 0.125 -0.05
0.1625 0.125 -0.05
0.175 0.125 -0.05
0.1875 0.125 -0.05
0.2 0.125 -0.05
0.2125 0.125 -0.05
0.225 0.125 -0.05
0.2375 0.125 -0.05
0.25 0.125 -0.05
0.2625 0.125 -0.05
0.275 0.125 -0.05
0.2875 0.125 -0.05
0.3 0.125 -0.05
0.3125 0.125 -0.05
0.325 0.125 -0.05
0.3375 0.125 -0.05
0.35 0.125 -0.05
0.3625 0.125 -0.05
0.375 0.125 -0.05
0.3875 0.125 -0.05
0.4 0.125 -0.05
0.4125 0.125 -0.05
0.425 0.125 -0.05
0.4375 0.125 -0.05
0.45 0.125 -0.05
0.4625 0.125 -0.05
0.475 0.125 -0.05
0.4875 0.125 -0.05
0.5 0.125 -0.05
0.5125 0.125 -0.05
0.525 0.125 -0.05
0.5375 0.125 -0.05
0.55 0.125 -0.05
0.5625 0.125 -0.05
0.575 0.125 -0.05
0.5875 0.125 -0.05
0.6 0.125 -0.05
0.0 0.1375 -0.05
0.0125 0.1375 -0.05
0.025 0.1375 -0.05
0.0375 0.1375 -0.05
0.05 0.1375 -0.05
0.0625 0.1375 -0.05
0.075 0.1375 -0.05
0.0875 0.1375 -0.05
[...]
CELL_DATA 16128
SCALARS P float 1
LOOKUP_TABLE default
99999.99988870052
100000.00012208613
99999.99989159404
99999.99999253983
100000.0003622491
99999.99880534316
100000.0030249881
99999.9932998556
100000.01383728847
99999.97291202878
100000.05103074023
99999.90699066201
100000.16480614735
99999.71556007209
100000.4787217253
99999.2145526586
100001.25454709843
99998.05544261228
100002.90857138865
99995.8467330776
100005.5413842639
99993.46676015531
100005.55496586727
100001.9347702755
99971.23812602328
100113.21920599586
99633.14211851293
101124.55092137978
96757.43942451544
109642.0280523183
77223.45000737393
312152.11940239224
854686.9164406476
1.1757756795046674e6
1.1591502285673618e6
1.1693315440914806e6
1.1835173679207542e6
1.1903132778334678e6
1.2005905453536839e6
1.2082304841535238e6
1.2156840639253287e6
1.2224225155928992e6
1.2275905509213337e6
1.233097118509453e6
1.235386215377189e6
1.2406372917029092e6
1.2381784952009888e6
1.2466237655942345e6
99999.99988718302
100000.00012577548
99999.99988422998
100000.00000678674
100000.00033605324
99999.99885135617
100000.00294773046
99999.99342343927
100000.01365127898
99999.97317179137
100000.05070763342
99999.90731897968
100000.16462440768
99999.71531082489
100000.47981933664
99999.21227638055
100001.25754073945
99998.0549340162
100002.89669983007
99995.89509076558
100005.40862079874
99993.76209513366
100005.01667813551
100002.6678307201
99970.92136635169
100110.97611310316
99643.6887887763
101095.11197371923
96815.84048917712
109587.17046553495
77018.04950067286
308152.3365057205
851771.4964855117
1.1799191223096426e6
1.1659293218386848e6
1.1762528937379406e6
1.1910371560820546e6
1.1979423787964482e6
1.2083323554739282e6
1.2160320711247188e6
1.223500363993334e6
1.2302073902750558e6
1.2352636863920193e6
1.2405965901322078e6
1.2426372330904682e6
1.2476711824873637e6
1.2449054569546576e6
1.253394104784473e6
99999.9998861809
100000.00013189786
99999.99986983158
100000.00004039842
100000.00026612687
99999.99899051039
100000.00268240333
99999.99391239622
100000.01277557752
99999.97469740277
100000.0481167275
99999.91160125176
100000.15774730196
99999.72597772501
100000.46398519052
99999.23430811764
100001.23001310203
99998.08194690282
100002.8893095248
99995.83286207837
100005.65822225872
99993.05673807843
100006.77167097914
99998.53960827814
99980.35403317488
100089.81959066368
99689.92104042314
100999.72971982752
96980.62249554071
109409.24312319353
76510.59186051962
295424.7795180918
834327.8674661773
1.1719829850728284e6
1.1620076809371116e6
1.1700812457715117e6
1.1850366354797638e6
1.1916252171465498e6
1.2018144690879544e6
1.2093828559869651e6
1.216714277180192e6
1.2233505870683424e6
1.2283926779643563e6
1.2337773071846312e6
1.2359217569938735e6
1.2411067442968297e6
1.2383932495802308e6
1.2471561441725593e6
99999.99988506397
100000.00014014322
99999.9998498419
100000.00008777404
100000.00016645229
99999.99919036996
100000.00229900013
99999.99462244431
100000.01149914971
99999.97692789245
100000.04432192359
99999.91788098858
100000.14766197458
99999.74162475139
100000.44074680419
99999.26681668816
100001.18870077292
99998.12536827885
100002.8660089141
99995.77897244936
100005.92329276471
99992.27905349644
100008.73932362626
99993.83280090781
99991.42823972655
100063.85963524767
99750.2076617972
100865.10333873062
97242.7338644516
109007.57582928856
76249.70682686131
277257.6463783714
811023.3235165413
1.1660236025608792e6
1.1635303769302904e6
1.1692412766528039e6
1.1851619902946164e6
1.1917622290641235e6
1.2020336010728993e6
1.2097004632956546e6
1.2170584474552504e6
1.223734413464111e6
1.2287899320162223e6
1.2341842093342233e6
1.236312292557955e6
1.2415293935867886e6
1.238687292188055e6
1.2477280639919103e6
99999.99988436534
100000.00014926142
99999.99982657503
100000.0001444357
100000.00004514975
99999.99943632988
100000.00182293786
99999.99551004091
100000.00989431489
99999.97974551839
100000.03950683157
99999.92588166868
100000.13475052697
99999.76177512007
100000.4105272357
99999.30979811153
100001.13211221233
99998.19031987112
100002.81298276215
99995.76510284616
100006.13429038621
99991.57135053044
100010.63009217982
99989.10948686107
100003.06980183547
100034.86521990335
99822.53050180976
100687.97357660615
97634.62507852663
108211.61309893172
76792.111449751
253430.8339473915
777630.0409613808
1.1543932120064718e6
1.162608691216334e6
1.1644182347497605e6
1.181003794813584e6
1.187276792458683e6
1.1972917113640725e6
1.204819767188641e6
1.2119738255922524e6
1.2185096524425575e6
1.2234417552963016e6
1.2287538781822543e6
1.23081931553157e6
1.2360566686160953e6
1.2330758653066366e6
1.2424549330597532e6
99999.99988469749
100000.00015776235
99999.9998028349
100000.00020489692
99999.99991230085
99999.99971020827
100000.00128610438
99999.99652074036
100000.0080521145
99999.98300270943
100000.03390554663
99999.93524708015
100000.11953917796
99999.78570446793
100000.37426399629
99999.36224628356
100001.06101424988
99998.27732632814
100002.72651753583
99995.8033134124
100006.26085491428
99991.0096430443
100012.26031268177
99984.83047040201
100014.14693370098
100005.51255373511
99901.37958797348
100476.13159107829
98164.3335670179
106907.1621436787
78704.56193732061
225497.50665469724
735379.3498610901
1.1389353817774872e6
1.1629107873083262e6
1.1602612268315197e6
1.1778252843158976e6
1.1840078999743685e6
1.1938889527947216e6
1.2014302694353815e6
1.2084912866815962e6
1.2149913924633544e6
1.2198853783036266e6
1.2251893591545972e6
1.2272424804240381e6
1.232560940749051e6
1.229434877203209e6
1.239255784147997e6
99999.99988667273
100000.00016408133
99999.9997816052
100000.00026323972
99999.99977880686
99999.99999228348
100000.00072284536
99999.9975961536
100000.00606857141
99999.98654541124
100000.02775629709
99999.94561837416
100000.10254398832
99999.81269088753
100000.33290610538
99999.42293623245
100000.97687478506
99998.38453186261
100002.60886532601
99995.890339642
100006.30629152548
99990.59570630924
100013.5899909833
99981.19489563532
100023.88863915873
99978.29298838347
99979.73853909905
100245.81576663177
98806.17492402226
105085.38031271721
82382.01634290085
194694.72167430414
683404.5665456107
1.1168470516189483e6
1.1625623124584092e6
1.1546776379807189e6
1.172892020951465e6
1.17889927201046e6
1.1883926537939012e6
1.1957767150491218e6
1.202548582017315e6
1.2088230817669672e6
1.2134868294386002e6
1.2185947123158036e6
1.2204501262004902e6
1.2257071473566233e6
1.2222728127001838e6
1.232584051434587e6
99999.99989082651
100000.00016674226
99999.99976578317
100000.00031360582
99999.99965564358
100000.00026259858
100000.00016811445
99999.9986772346
100000.00404020921
99999.9902222708
100000.02128763187
99999.95666916967
100000.08420730062
99999.84218670567
100000.28707515213
99999.4912780243
100000.88020069417
99998.51147025984
100002.46142113405
99996.02120815613
100006.28657391366
99990.29009247126
100014.6966434248
99978.12539786466
100032.1017922595
99954.89812227442
100050.49390958973
100021.04446135386
99498.77952101504
102896.64692947356
87834.46804568748
162903.0605744664
622109.5822427733
1.0868778282577095e6
1.1619801373055263e6
1.1489029292637983e6
1.1674269148086428e6
1.173458063625081e6
1.1825184911846488e6
1.1897903027963135e6
1.1963099655894574e6
1.2024181123070857e6
1.206936682693229e6
1.2119632836152252e6
1.2137505227147266e6
1.2191050251632573e6
1.2154519525821721e6
1.226438055411836e6
99999.99989753788
100000.00016451238
99999.9997579319
100000.00035057544
99999.99955328545
100000.00050160938
99999.99965671357
99999.99970431667
100000.00206487205
99999.99387985516
100000.0147260228
99999.96808851595
100000.0649060695
99999.87382573
100000.23691074795
99999.56777547304
100000.76907662938
99998.66249252035
100002.27636694301
99996.2064726305
100006.1945455676
99990.07589314991
100015.66771760385
99975.39574585597
100039.12127113892
99935.69164671015
100108.66906156483
99827.05632641136
100151.81344941445
100650.61405921062
94501.41346480635
132431.36963510947
552121.0823011625
1.0466205552211719e6
1.160024978068144e6
1.1427211427415304e6
1.1606977644534784e6
1.1668514391440302e6
1.1752387585915239e6
1.182219571077279e6
1.188260536035673e6
1.1939290759102502e6
1.1979739452306228e6
1.2025419823307802e6
1.2038238450283802e6
1.2088839096010253e6
1.2045646511150626e6
1.2162339427810435e6
99999.99990695594
100000.00015656084
99999.99976003409
100000.00036958502
99999.99948117108
100000.00069083403
99999.99922309432
100000.00061609842
100000.00024701316
99999.99734915028
100000.00832957558
99999.97951463849
100000.04508498362
99999.90720748028
100000.1824171321
99999.65365904031
100000.6393366355
99998.84792652453
100002.03183878596
99996.48746614851
100005.96106347036
99990.05155705615
100016.40335798144
99973.02067142708
100045.16841460697
99920.45825841326
100151.73494849428
99684.51726307916
100666.19523752383
98747.74985532512
101181.91254036303
106164.80852020106
475100.97002307174
993770.4474419444
1.1553927966446637e6
1.1366476397114417e6
1.1529078055517685e6
1.1594302018819589e6
1.1670387034439647e6
1.1737049783421368e6
1.1792813285612944e6
1.1845699824058956e6
1.1882877393266342e6
1.192629745149946e6
1.1937525599311544e6
1.1989136539794437e6
1.1942906291719952e6
1.206989970248024e6
99999.99991892983
100000.00014263108
99999.9997731834
100000.00036746709
99999.99944681633
100000.0008140726
99999.99889991585
100000.0013501449
99999.99870048428
100000.00043185624
100000.00242628089
99999.99043720303
100000.02547018704
99999.94144113787
100000.12434046877
99999.74924595999
100000.48731495987
99999.07982417398
100001.69708171577
99996.93319340989
100005.4447232327
99990.48316624327
100016.44735276134
99971.68587864196
100049.3835316145
99910.10389802331
100177.70892055013
99606.24548017321
100963.13632970239
97547.31426589031
106268.63575134959
87198.80044117062
393750.0802091627
926008.606670121
1.1456966733672374e6
1.1308372412405617e6
1.1438005215638494e6
1.1508514956712942e6
1.1574582055615669e6
1.163535488730644e6
1.1682922762966258e6
1.1726957883765523e6
1.1753945323607868e6
1.1786232649756193e6
1.1784319736878108e6
1.1825338989524199e6
1.1762025938908765e6
1.1897044239113396e6
99999.99993295476
100000.0001232088
99999.99979723441
100000.00034317908
99999.9994544565
100000.0008598473
99999.99871411257
100000.00184873023
99999.9975418576
100000.00290431887
99999.99742669001
100000.00013704461
100000.00725909293
99999.97466213291
100000.06531566114
99999.85143840272
100000.31506956024
99999.36165061005
100001.25179599621
99997.60636095786
100004.4863516197
99991.73128848603
100015.05116365601
99972.81081534484
100049.34847202104
99908.13563665783
100182.22986583131
99598.51857152765
101007.47028872698
97236.46157918878
108388.33475105635
77901.6265130397
311834.88350406906
841826.1587811942
1.1277888844036686e6
1.1255246909754667e6
1.133514724931429e6
1.1412311337675778e6
1.146792986558371e6
1.1522022326971302e6
1.1561735206897375e6
1.159812023018092e6
1.1618338233819765e6
1.1645217325495528e6
1.1639935182378707e6
1.1680935439691967e6
1.1614559688032e6
1.1763711101909261e6
99999.9999481652
100000.00009961997
99999.99983051473
100000.00029852861
99999.99950339667
100000.00082482903
99999.99868012476
100000.00207132143
99999.99686853251
100000.00455245445
99999.99377361024
100000.00774088895
99999.99210182365
100000.00387753813
100000.01052999917
99999.95172123113
100000.13556147713
99999.67599937988
100000.713700688
99998.504835171
100003.0282165994
99994.02042234616
100011.59107461518
99977.85635292793
100042.05876944696
99919.68798064497
100158.79435978358
99661.98422778494
100819.13792353935
97752.26730452132
107213.86464495055
78660.65309837976
233929.10496445227
741020.7724139199
1.097629745252266e6
1.1205507125436082e6
1.1221939068073328e6
1.1303386645597275e6
1.1346914086685935e6
1.13898697268048e6
1.141578616946595e6
1.1435245326135785e6
1.1434286626897096e6
1.1435312770575974e6
1.1395748419270776e6
1.1402442162796112e6
1.1283746578444268e6
1.1434213466705862e6
99999.99996340307
100000.0000739724
99999.99986976804
100000.00023855992
99999.99958675886
100000.00071711326
99999.99879226516
100000.00201121002
99999.9967246807
100000.00523859225
99999.99181799847
100000.01244163826
99999.98173897614
100000.02551142016
99999.96704801475
100000.03663406259
99999.97353368836
99999.97912575761
100000.15647645429
99999.51213786226
100001.23648021607
99997.15503259825
100006.19050875012
99987.05012324378
100026.36948480124
99947.44032019445
100104.48588606947
99787.46641972735
100473.77793489756
98778.28564305973
103916.40320564988
87011.49388346635
165580.37211220752
625338.2038343124
1.0502083554960457e6
1.1149883170521706e6
1.1103804218099026e6
1.118315187387319e6
1.1215284496179281e6
1.1245625950119742e6
1.1258264219275643e6
1.126314789748374e6
1.124834827801406e6
1.1236218406096073e6
1.1188842792977483e6
1.1187810400787492e6
1.1070302276617333e6
1.1216750271129045e6
99999.99997739134
100000.00004886519
99999.99991052864
100000.00017114524
99999.9996915698
100000.00055732304
99999.99902014162
100000.00170860672
99999.99706844742
100000.0049765182
99999.99165572455
100000.01383553239
99999.97732845836
100000.03669109181
99999.94144233986
100000.09191829752
99999.85870888887
100000.21110386559
99999.69749979042
100000.40517484401
99999.52283435545
100000.40285095827
100000.0998683422
99998.36626621721
100005.41281793195
99986.54218180633
100028.65505877629
99947.1889466681
100084.14577079026
99871.27425787646
100356.6103240218
98033.02596042801
113526.07377933705
499538.2146447814
979731.7986616478
1.1060355774121254e6
1.0985393802958017e6
1.1049826753358287e6
1.1069995492230072e6
1.1082116429645575e6
1.1073170844236135e6
1.1049290763988816e6
1.0994939984513076e6
1.0927979041455726e6
1.0796533796007042e6
1.069023523071956e6
1.0386631519059858e6
1.0464175596168002e6
99999.99998898535
100000.00002687697
99999.99994796581
100000.000105572
99999.99980089895
100000.00037575756
99999.99931151411
100000.00125061393
99999.99776147197
100000.0039724657
99999.99301097688
100000.01221714287
99999.97875815633
100000.03677731808
99999.93653158504
100000.10925747782
99999.81228149924
100000.32202660627
99999.44844120544
100000.94316135977
99998.39109919508
100002.73765868375
99995.35718945517
100007.87145035829
99986.58496373512
100023.48273464724
99956.20339424492
100092.22534787733
99772.39798528407
100639.9710648725
98071.60974982302
105940.71918167971
83952.64356830347
372164.9396552217
881620.5658907676
1.088671127702024e6
1.0871647135232603e6
1.0905171086964027e6
1.0914731874659967e6
1.0907387884252854e6
1.087712291669677e6
1.082746859984878e6
1.0745104468236761e6
1.0646008113432196e6
1.0492267801243318e6
1.0342279460713398e6
1.0054038954765414e6
972182.4057843825
99999.99999743537
100000.00000996458
99999.99997802198
100000.0000503453
99999.99989785283
100000.00020527693
99999.99960423376
100000.00075210867
99999.99859634713
100000.00259149473
99999.99525853836
100000.00862056624
99999.9843917857
100000.02819060671
99999.94912238495
100000.09187902899
99999.83377748347
100000.30159991956
99999.45080603161
100001.0044767853
99998.15459779078
100003.4078796844
99993.67731080901
100011.8029065599
99977.82639723565
100042.1774522294
99918.14613731738
100165.71382113434
99639.91060299531
100872.42840281893
97625.97890429784
107423.38756722595
77825.30919936854
254327.5025337806
754844.0614666379
1.0557525099866327e6
1.0763677822725794e6
1.0751864082562719e6
1.0749014827789122e6
1.0718600217353583e6
1.0659919484452514e6
1.0570912677766313e6
1.0431540597321277e6
1.0240603693696674e6
992809.6500685537
947919.9396647074
858561.1952195861
701820.7231232676
100000.00000256643
99999.99999898538
99999.99999844571
100000.00001097441
99999.9999701455
100000.00007219252
99999.99984409851
100000.00032199216
99999.99935937936
100000.00124544089
99999.99761873284
100000.00449925131
99999.99156292636
100000.01574358263
99999.97068110875
100000.05459004892
99999.89815712176
100000.19061254254
99999.64153533499
100000.67789023172
99998.70979435873
100002.47222370087
99995.23155800767
100009.25824223204
99981.9309210456
100035.46705467434
99930.07107978486
100139.39865168373
99716.47149974013
100608.40237641626
98569.93402728772
104013.30625517754
87818.73754755085
158597.28504684052
603669.5902086147
997622.5423667781
1.064642627126508e6
1.0596370263801087e6
1.057668511103284e6
1.0523005347834514e6
1.0435230802353347e6
1.030825900756254e6
1.0118910774321202e6
985891.899233763
945584.9991241045
888074.4543571367
788343.105224137
627487.2330422875
100000.00000478301
99999.99999356233
100000.00000924796
99999.99998869328
100000.00001319604
99999.99998904283
100000.00000063931
100000.00002920002
99999.99990096872
100000.00024872996
99999.9994449082
100000.00116018546
99999.99766650467
100000.00457677351
99999.99116938918
100000.01687599893
99999.96793868877
100000.06085791191
99999.88438893914
100000.2207224514
99999.57627515921
100000.8205088539
99998.3992010885
100003.15027948066
99993.77798340266
100012.29489115975
99976.0529906608
100045.30236343812
99920.34028798946
100120.4029231121
99887.83484715836
99869.23565948188
101130.99400670483
97856.75139809368
440507.8302298975
903836.9431924265
1.0468914432128797e6
1.04437188694039e6
1.0400192220141222e6
1.0324991030909348e6
1.020951479393361e6
1.0048303588517712e6
981694.5495705181
950595.0403754049
904687.741572765
842303.0683889287
743251.42696483
605844.3629738529
100000.00000490574
99999.99999235317
100000.00001238866
99999.99998075512
100000.00003031552
99999.99995295604
100000.0000730761
99999.99988640391
100000.0001770146
99999.99972086718
100000.00044572141
99999.99927119662
100000.00122213198
99999.99788024991
100000.00379655826
99999.99295907546
100000.01343080681
99999.97369846542
100000.05246660183
99999.89374239446
100000.21744098936
99999.55206647364
100000.92888402777
99998.06867102381
100004.05011907403
99991.4551843645
100018.43376248133
99959.08595803089
100096.38340907835
99755.11386004424
100685.22737097678
97905.40548805434
107005.06490395553
77716.4236125644
285618.45806975465
768621.625426268
1.0139291242967471e6
1.0296921034491888e6
1.022466186563581e6
1.0129911585586689e6
998999.3583107489
980052.1502480136
953745.2341679148
919390.3549026503
870737.2994000914
808062.0602363142
714603.8726173226
599430.9111946662
100000.00000388052
99999.99999360857
100000.00001081143
99999.99998209218
100000.00002990132
99999.9999501006
100000.0000834949
99999.99985914484
100000.00023904425
99999.99958939411
100000.00071313098
99999.99874363383
100000.002246175
99999.99592309826
100000.0075185267
99999.98593190046
100000.02672262304
99999.94857368352
100000.10026468188
99999.802272358
100000.39413309601
99999.20652789966
100001.61119655111
99996.70050158192
100006.80428415768
99985.86909171121
100029.54225229182
99937.75396079471
100132.83235629095
99710.38509828798
100659.07332639964
98390.95726283171
104475.91306574286
86754.8389977962
162618.58910699718
596234.3317169178
951632.5596682108
1.01379389617926e6
1.0055449960486089e6
994178.0752305771
978153.82601613
957013.1480075668
928521.1907247852
892358.8219817084
843043.9650328144
782251.907583174
696554.4115324381
598345.7602260708
100000.00000251735
99999.99999575033
100000.00000735342
99999.99998748096
100000.00002135249
99999.99996350452
100000.00006227098
99999.99989299555
100000.00018417097
99999.99968028093
100000.00055794576
99999.99901692667
100000.0017451789
99999.99686991962
100000.00566207773
99999.98965189062
100000.0190817681
99999.96447385561
100000.06675698784
99999.8734866548
100000.24213510522
99999.533184793
100000.90948599663
99998.21793192702
100003.52750633907
99993.00184083327
100013.96011849683
99972.41199589262
100053.78888514731
99900.23906595823
100167.78922490036
99793.03066880538
99965.01486192853
101727.43530475201
92707.86110869661
407002.70810929337
843987.8186867272
989791.3038671614
989390.9981638124
976304.5149055037
958699.9345043716
935974.2175325972
906154.1992837408
869231.3128886159
820639.4780244058
762642.9874283222