# vtk DataFile Version 2.0
JuliaCFD
ASCII
DATASET UNSTRUCTURED_GRID

POINTS 32898 float
0.0 0.0 -0.05
0.0125 0.0 -0.05
0.025 0.0 -0.05
0.0375 0.0 -0.05
0.05 0.0 -0.05
0.0625 0.0 -0.05
0.075 0.0 -0.05
0.0875 0.0 -0.05
0.1 0.0 -0.05
0.1125 0.0 -0.05
0.125 0.0 -0.05
0.1375 0.0 -0.05
0.15 0.0 -0.05
0.1625 0.0 -0.05
0.175 0.0 -0.05
0.1875 0.0 -0.05
0.2 0.0 -0.05
0.2125 0.0 -0.05
0.225 0.0 -0.05
0.2375 0.0 -0.05
0.25 0.0 -0.05
0.2625 0.0 -0.05
0.275 0.0 -0.05
0.2875 0.0 -0.05
0.3 0.0 -0.05
0.3125 0.0 -0.05
0.325 0.0 -0.05
0.3375 0.0 -0.05
0.35 0.0 -0.05
0.3625 0.0 -0.05
0.375 0.0 -0.05
0.3875 0.0 -0.05
0.4 0.0 -0.05
0.4125 0.0 -0.05
0.425 0.0 -0.05
0.4375 0.0 -0.05
0.45 0.0 -0.05
0.4625 0.0 -0.05
0.475 0.0 -0.05
0.4875 0.0 -0.05
0.5 0.0 -0.05
0.5125 0.0 -0.05
0.525 0.0 -0.05
0.5375 0.0 -0.05
0.55 0.0 -0.05
0.5625 0.0 -0.05
0.575 0.0 -0.05
0.5875 0.0 -0.05
0.6 0.0 -0.05
0.0 0.0125 -0.05
0.0125 0.0125 -0.05
0.025 0.0125 -0.05
0.0375 0.0125 -0.05
0.05 0.0125 -0.05
0.0625 0.0125 -0.05
0.075 0.0125 -0.05
0.0875 0.0125 -0.05
0.1 0.0125 -0.05
0.1125 0.0125 -0.05
0.125 0.0125 -0.05
0.1375 0.0125 -0.05
0.15 0.0125 -0.05
0.1625 0.0125 -0.05
0.175 0.0125 -0.05
0.1875 0.0125 -0.05
0.2 0.0125 -0.05
0.2125 0.0125 -0.05
0.225 0.0125 -0.05
0.2375 0.0125 -0.05
0.25 0.0125 -0.05
0.2625 0.0125 -0.05
0.275 0.0125 -0.05
0.2875 0.0125 -0.05
0.3 0.0125 -0.05
0.3125 0.0125 -0.05
0.325 0.0125 -0.05
0.3375 0.0125 -0.05
0.35 0.0125 -0.05
0.3625 0.0125 -0.05
0.375 0.0125 -0.05
0.3875 0.0125 -0.05
0.4 0.0125 -0.05
0.4125 0.0125 -0.05
0.425 0.0125 -0.05
0.4375 0.0125 -0.05
0.45 0.0125 -0.05
0.4625 0.0125 -0.05
0.475 0.0125 -0.05
0.4875 0.0125 -0.05
0.5 0.0125 -0.05
0.5125 0.0125 -0.05
0.525 0.0125 -0.05
0.5375 0.0125 -0.05
0.55 0.0125 -0.05
0.5625 0.0125 -0.05
0.575 0.0125 -0.05
0.5875 0.0125 -0.05
0.6 0.0125 -0.05
0.0 0.025 -0.05
0.0125 0.025 -0.05
0.025 0.025 -0.05
0.0375 0.025 -0.05
0.05 0.025 -0.05
0.0625 0.025 -0.05
0.075 0.025 -0.05
0.0875 0.025 -0.05
0.1 0.025 -0.05
0.1125 0.025 -0.05
0.125 0.025 -0.05
0.1375 0.025 -0.05
0.15 0.025 -0.05
0.1625 0.025 -0.05
0.175 0.025 -0.05
0.1875 0.025 -0.05
0.2 0.025 -0.05
0.2125 0.025 -0.05
0.225 0.025 -0.05
0.2375 0.025 -0.05
0.25 0.025 -0.05
0.2625 0.025 -0.05
0.275 0.025 -0.05
0.2875 0.025 -0.05
0.3 0.025 -0.05
0.3125 0.025 -0.05
0.325 0.025 -0.05
0.3375 0.025 -0.05
0.35 0.025 -0.05
0.3625 0.025 -0.05
0.375 0.025 -0.05
0.3875 0.025 -0.05
0.4 0.025 -0.05
0.4125 0.025 -0.05
0.425 0.025 -0.05
0.4375 0.025 -0.05
0.45 0.025 -0.05
0.4625 0.025 -0.05
0.475 0.025 -0.05
0.4875 0.025 -0.05
0.5 0.025 -0.05
0.5125 0.025 -0.05
0.525 0.025 -0.05
0.5375 0.025 -0.05
0.55 0.025 -0.05
0.5625 0.025 -0.05
0.575 0.025 -0.05
0.5875 0.025 -0.05
0.6 0.025 -0.05
0.0 0.0375 -0.05
0.0125 0.0375 -0.05
0.025 0.0375 -0.05
0.0375 0.0375 -0.05
0.05 0.0375 -0.05
0.0625 0.0375 -0.05
0.075 0.0375 -0.05
0.0875 0.0375 -0.05
0.1 0.0375 -0.05
0.1125 0.0375 -0.05
0.125 0.0375 -0.05
0.1375 0.0375 -0.05
0.15 0.0375 -0.05
0.1625 0.0375 -0.05
0.175 0.0375 -0.05
0.1875 0.0375 -0.05
0.2 0.0375 -0.05
0.2125 0.0375 -0.05
0.225 0.0375 -0.05
0.2375 0.0375 -0.05
0.25 0.0375 -0.05
0.2625 0.0375 -0.05
0.275 0.0375 -0.05
0.2875 0.0375 -0.05
0.3 0.0375 -0.05
0.3125 0.0375 -0.05
0.325 0.0375 -0.05
0.3375 0.0375 -0.05
0.35 0.0375 -0.05
0.3625 0.0375 -0.05
0.375 0.0375 -0.05
0.3875 0.0375 -0.05
0.4 0.0375 -0.05
0.4125 0.0375 -0.05
0.425 0.0375 -0.05
0.4375 0.0375 -0.05
0.45 0.0375 -0.05
0.4625 0.0375 -0.05
0.475 0.0375 -0.05
0.4875 0.0375 -0.05
0.5 0.0375 -0.05
0.5125 0.0375 -0.05
0.525 0.0375 -0.05
0.5375 0.0375 -0.05
0.55 0.0375 -0.05
0.5625 0.0375 -0.05
0.575 0.0375 -0.05
0.5875 0.0375 -0.05
0.6 0.0375 -0.05
0.0 0.05 -0.05
0.0125 0.05 -0.05
0.025 0.05 -0.05
0.0375 0.05 -0.05
0.05 0.05 -0.05
0.0625 0.05 -0.05
0.075 0.05 -0.05
0.0875 0.05 -0.05
0.1 0.05 -0.05
0.1125 0.05 -0.05
0.125 0.05 -0.05
0.1375 0.05 -0.05
0.15 0.05 -0.05
0.1625 0.05 -0.05
0.175 0.05 -0.05
0.1875 0.05 -0.05
0.2 0.05 -0.05
0.2125 0.05 -0.05
0.225 0.05 -0.05
0.2375 0.05 -0.05
0.25 0.05 -0.05
0.2625 0.05 -0.05
0.275 0.05 -0.05
0.2875 0.05 -0.05
0.3 0.05 -0.05
0.3125 0.05 -0.05
0.325 0.05 -0.05
0.3375 0.05 -0.05
0.35 0.05 -0.05
0.3625 0.05 -0.05
0.375 0.05 -0.05
0.3875 0.05 -0.05
0.4 0.05 -0.05
0.4125 0.05 -0.05
0.425 0.05 -0.05
0.4375 0.05 -0.05
0.45 0.05 -0.05
0.4625 0.05 -0.05
0.475 0.05 -0.05
0.4875 0.05 -0.05
0.5 0.05 -0.05
0.5125 0.05 -0.05
0.525 0.05 -0.05
0.5375 0.05 -0.05
0.55 0.05 -0.05
0.5625 0.05 -0.05
0.575 0.05 -0.05
0.5875 0.05 -0.05
0.6 0.05 -0.05
0.0 0.0625 -0.05
0.0125 0.0625 -0.05
0.025 0.0625 -0.05
0.0375 0.0625 -0.05
0.05 0.0625 -0.05
0.0625 0.0625 -0.05
0.075 0.0625 -0.05
0.0875 0.0625 -0.05
0.1 0.0625 -0.05
0.1125 0.0625 -0.05
0.125 0.0625 -0.05
0.1375 0.0625 -0.05
0.15 0.0625 -0.05
0.1625 0.0625 -0.05
0.175 0.0625 -0.05
0.1875 0.0625 -0.05
0.2 0.0625 -0.05
0.2125 0.0625 -0.05
0.225 0.0625 -0.05
0.2375 0.0625 -0.05
0.25 0.0625 -0.05
0.2625 0.0625 -0.05
0.275 0.0625 -0.05
0.2875 0.0625 -0.05
0.3 0.0625 -0.05
0.3125 0.0625 -0.05
0.325 0.0625 -0.05
0.3375 0.0625 -0.05
0.35 0.0625 -0.05
0.3625 0.0625 -0.05
0.375 0.0625 -0.05
0.3875 0.0625 -0.05
0.4 0.0625 -0.05
0.4125 0.0625 -0.05
0.425 0.0625 -0.05
0.4375 0.0625 -0.05
0.45 0.0625 -0.05
0.4625 0.0625 -0.05
0.475 0.0625 -0.05
0.4875 0.0625 -0.05
0.5 0.0625 -0.05
0.5125 0.0625 -0.05
0.525 0.0625 -0.05
0.5375 0.0625 -0.05
0.55 0.0625 -0.05
0.5625 0.0625 -0.05
0.575 0.0625 -0.05
0.5875 0.0625 -0.05
0.6 0.0625 -0.05
0.0 0.075 -0.05
0.0125 0.075 -0.05
0.025 0.075 -0.05
0.0375 0.075 -0.05
0.05 0.075 -0.05
0.0625 0.075 -0.05
0.075 0.075 -0.05
0.0875 0.075 -0.05
0.1 0.075 -0.05
0.1125 0.075 -0.05
0.125 0.075 -0.05
0.1375 0.075 -0.05
0.15 0.075 -0.05
0.1625 0.075 -0.05
0.175 0.075 -0.05
0.1875 0.075 -0.05
0.2 0.075 -0.05
0.2125 0.075 -0.05
0.225 0.075 -0.05
0.2375 0.075 -0.05
0.25 0.075 -0.05
0.2625 0.075 -0.05
0.275 0.075 -0.05
0.2875 0.075 -0.05
0.3 0.075 -0.05
0.3125 0.075 -0.05
0.325 0.075 -0.05
0.3375 0.075 -0.05
0.35 0.075 -0.05
0.3625 0.075 -0.05
0.375 0.075 -0.05
0.3875 0.075 -0.05
0.4 0.075 -0.05
0.4125 0.075 -0.05
0.425 0.075 -0.05
0.4375 0.075 -0.05
0.45 0.075 -0.05
0.4625 0.075 -0.05
0.475 0.075 -0.05
0.4875 0.075 -0.05
0.5 0.075 -0.05
0.5125 0.075 -0.05
0.525 0.075 -0.05
0.5375 0.075 -0.05
0.55 0.075 -0.05
0.5625 0.075 -0.05
0.575 0.075 -0.05
0.5875 0.075 -0.05
0.6 0.075 -0.05
0.0 0.0875 -0.05
0.0125 0.0875 -0.05
0.025 0.0875 -0.05
0.0375 0.0875 -0.05
0.05 0.0875 -0.05
0.0625 0.0875 -0.05
0.075 0.0875 -0.05
0.0875 0.0875 -0.05
0.1 0.0875 -0.05
0.1125 0.0875 -0.05
0.125 0.0875 -0.05
0.1375 0.0875 -0.05
0.15 0.0875 -0.05
0.1625 0.0875 -0.05
0.175 0.0875 -0.05
0.1875 0.0875 -0.05
0.2 0.0875 -0.05
0.2125 0.0875 -0.05
0.225 0.0875 -0.05
0.2375 0.0875 -0.05
0.25 0.0875 -0.05
0.2625 0.0875 -0.05
0.275 0.0875 -0.05
0.2875 0.0875 -0.05
0.3 0.0875 -0.05
0.3125 0.0875 -0.05
0.325 0.0875 -0.05
0.3375 0.0875 -0.05
0.35 0.0875 -0.05
0.3625 0.0875 -0.05
0.375 0.0875 -0.05
0.3875 0.0875 -0.05
0.4 0.0875 -0.05
0.4125 0.0875 -0.05
0.425 0.0875 -0.05
0.4375 0.0875 -0.05
0.45 0.0875 -0.05
0.4625 0.0875 -0.05
0.475 0.0875 -0.05
0.4875 0.0875 -0.05
0.5 0.0875 -0.05
0.5125 0.0875 -0.05
0.525 0.0875 -0.05
0.5375 0.0875 -0.05
0.55 0.0875 -0.05
0.5625 0.0875 -0.05
0.575 0.0875 -0.05
0.5875 0.0875 -0.05
0.6 0.0875 -0.05
0.0 0.1 -0.05
0.0125 0.1 -0.05
0.025 0.1 -0.05
0.0375 0.1 -0.05
0.05 0.1 -0.05
0.0625 0.1 -0.05
0.075 0.1 -0.05
0.0875 0.1 -0.05
0.1 0.1 -0.05
0.1125 0.1 -0.05
0.125 0.1 -0.05
0.1375 0.1 -0.05
0.15 0.1 -0.05
0.1625 0.1 -0.05
0.175 0.1 -0.05
0.1875 0.1 -0.05
0.2 0.1 -0.05
0.2125 0.1 -0.05
0.225 0.1 -0.05
0.2375 0.1 -0.05
0.25 0.1 -0.05
0.2625 0.1 -0.05
0.275 0.1 -0.05
0.2875 0.1 -0.05
0.3 0.1 -0.05
0.3125 0.1 -0.05
0.325 0.1 -0.05
0.3375 0.1 -0.05
0.35 0.1 -0.05
0.3625 0.1 -0.05
0.375 0.1 -0.05
0.3875 0.1 -0.05
0.4 0.1 -0.05
0.4125 0.1 -0.05
0.425 0.1 -0.05
0.4375 0.1 -0.05
0.45 0.1 -0.05
0.4625 0.1 -0.05
0.475 0.1 -0.05
0.4875 0.1 -0.05
0.5 0.1 -0.05
0.5125 0.1 -0.05
0.525 0.1 -0.05
0.5375 0.1 -0.05
0.55 0.1 -0.05
0.5625 0.1 -0.05
0.575 0.1 -0.05
0.5875 0.1 -0.05
0.6 0.1 -0.05
0.0 0.1125 -0.05
0.0125 0.1125 -0.05
0.025 0.1125 -0.05
0.0375 0.1125 -0.05
0.05 0.1125 -0.05
0.0625 0.1125 -0.05
0.075 0.1125 -0.05
0.0875 0.1125 -0.05
0.1 0.1125 -0.05
0.1125 0.1125 -0.05
0.125 0.1125 -0.05
0.1375 0.1125 -0.05
0.15 0.1125 -0.05
0.1625 0.1125 -0.05
0.175 0.1125 -0.05
0.1875 0.1125 -0.05
0.2 0.1125 -0.05
0.2125 0.1125 -0.05
0.225 0.1125 -0.05
0.2375 0.1125 -0.05
0.25 0.1125 -0.05
0.2625 0.1125 -0.05
0.275 0.1125 -0.05
0.2875 0.1125 -0.05
0.3 0.1125 -0.05
0.3125 0.1125 -0.05
0.325 0.1125 -0.05
0.3375 0.1125 -0.05
0.35 0.1125 -0.05
0.3625 0.1125 -0.05
0.375 0.1125 -0.05
0.3875 0.1125 -0.05
0.4 0.1125 -0.05
0.4125 0.1125 -0.05
0.425 0.1125 -0.05
0.4375 0.1125 -0.05
0.45 0.1125 -0.05
0.4625 0.1125 -0.05
0.475 0.1125 -0.05
0.4875 0.1125 -0.05
0.5 0.1125 -0.05
0.5125 0.1125 -0.05
0.525 0.1125 -0.05
0.5375 0.1125 -0.05
0.55 0.1125 -0.05
0.5625 0.1125 -0.05
0.575 0.1125 -0.05
0.5875 0.1125 -0.05
0.6 0.1125 -0.05
0.0 0.125 -0.05
0.0125 0.125 -0.05
0.025 0.125 -0.05
0.0375 0.125 -0.05
0.05 0.125 -0.05
0.0625 0.125 -0.05
0.075 0.125 -0.05
0.0875 0.125 -0.05
0.1 0.125 -0.05
0.1125 0.125 -0.05
0.125 0.125 -0.05
0.1375 0.125 -0.05
0.15 0.125 -0.05
0.1625 0.125 -0.05
0.175 0.125 -0.05
0.1875 0.125 -0.05
0.2 0.125 -0.05
0.2125 0.125 -0.05
0.225 0.125 -0.05
0.2375 0.125 -0.05
0.25 0.125 -0.05
0.2625 0.125 -0.05
0.275 0.125 -0.05
0.2875 0.125 -0.05
0.3 0.125 -0.05
0.3125 0.125 -0.05
0.325 0.125 -0.05
0.3375 0.125 -0.05
0.35 0.125 -0.05
0.3625 0.125 -0.05
0.375 0.125 -0.05
0.3875 0.125 -0.05
0.4 0.125 -0.05
0.4125 0.125 -0.05
0.425 0.125 -0.05
0.4375 0.125 -0.05
0.45 0.125 -0.05
0.4625 0.125 -0.05
0.475 0.125 -0.05
0.4875 0.125 -0.05
0.5 0.125 -0.05
0.5125 0.125 -0.05
0.525 0.125 -0.05
0.5375 0.125 -0.05
0.55 0.125 -0.05
0.5625 0.125 -0.05
0.575 0.125 -0.05
0.5875 0.125 -0.05
0.6 0.125 -0.05
0.0 0.1375 -0.05
0.0125 0.1375 -0.05
0.025 0.1375 -0.05
0.0375 0.1375 -0.05
0.05 0.1375 -0.05
0.0625 0.1375 -0.05
0.075 0.1375 -0.05
0.0875 0.1375 -0.05
[...]
CELL_DATA 16128
SCALARS P float 1
LOOKUP_TABLE default
99999.99064528423
100000.01651076663
99999.97274392292
100000.04679631747
99999.92159068324
100000.13317754067
99999.77572976069
100000.37936730255
99999.36004907668
100001.08135233901
99998.17324057376
100003.09105751255
99994.75872225146
100008.92198652482
99984.7083904806
100026.48037043375
99953.30730898217
100084.37646937324
99841.2997778698
100312.7567067886
99343.66242192258
101472.25515442049
96555.90480792426
109037.98022249425
79068.25611665312
321327.11377731536
807579.9589044075
1.0584671114216964e6
1.0588161108393935e6
1.0730631768531573e6
1.0842280016744393e6
1.095483866034429e6
1.1061672217126715e6
1.1163985760423176e6
1.1261395822172395e6
1.135412351659052e6
1.1441653324041842e6
1.1524572826561911e6
1.160135585299197e6
1.1673960211713982e6
1.173808781487277e6
1.1800152900092015e6
1.1847749660303548e6
1.190122882364377e6
1.1923604052817908e6
1.1978253427501053e6
1.195277387517349e6
1.2042878775566986e6
99999.99070226903
100000.01634749757
99999.97294113628
100000.04639120212
99999.9221922744
100000.13208294728
99999.77752806689
100000.376190443
99999.3655503497
100001.07156598433
99998.19069354076
100003.05963686419
99994.8153820081
100008.82019185975
99984.8894921183
100026.16591629402
99953.83386798219
100083.56449917253
99842.37667743693
100311.99958287398
99341.93534752447
101484.85258349581
96511.28128219946
109199.44201932354
78692.8482065936
318178.27571430034
805953.3579285607
1.0618777425906728e6
1.063722403213723e6
1.0783936793967038e6
1.0898850701992384e6
1.101287708945314e6
1.1120771977546134e6
1.1223923933442265e6
1.1322177272836883e6
1.141580472550029e6
1.1504309489151253e6
1.1588266534084482e6
1.166611749403398e6
1.1739787888028366e6
1.1804918090550555e6
1.186789752967341e6
1.1916207270223752e6
1.197026219217179e6
1.1992775792150602e6
1.2047652505495967e6
1.202123835992238e6
1.2112328692135473e6
99999.99147095319
100000.01495760625
99999.9752372856
100000.04238291293
99999.92895901445
100000.12043723349
99999.79733674585
100000.34229886073
99999.42328825679
100000.97310609731
99998.35822146856
100002.77490617224
99995.29819812374
100008.00391904538
99986.26397161502
100023.86791278046
99957.63796766315
100077.39597452544
99852.05560824621
100297.97699726261
99358.95630730642
101477.29692250854
96464.93910476677
109493.26262143809
77726.8712437679
308417.6710417224
794177.1385487996
1.0569009106778814e6
1.0603423720307609e6
1.0741858771995408e6
1.0855399417310385e6
1.0967086232565253e6
1.1073281073630706e6
1.1174719691205553e6
1.1271295247400505e6
1.1363201788037661e6
1.1449954840938917e6
1.1532129358827793e6
1.1608213828607684e6
1.1680137866249133e6
1.1743636931004655e6
1.1805063764038745e6
1.185207755958915e6
1.190496391152796e6
1.1926678654367684e6
1.1981075401895798e6
1.1953904692111062e6
1.2046580658182306e6
99999.99253594197
100000.013026076
99999.97842047615
100000.0368298957
99999.93832501024
100000.10433501907
99999.82470959342
100000.29549720921
99999.50300089917
100000.83717601573
99998.58961242675
100002.38124894598
99995.96684304171
100006.87061045328
99988.1792865136
100020.64945031102
99963.00424939343
100068.60624924826
99866.06811232382
100277.11351975209
99385.99131319474
101458.37409482955
96421.74061188706
109830.9438551137
76561.05930216848
294249.6404876216
778534.3114417234
1.0535884673407562e6
1.0604686765306022e6
1.073717282506321e6
1.0853473159457822e6
1.0965193259724462e6
1.1071682973977982e6
1.117309456218358e6
1.126961841383974e6
1.1361459841173245e6
1.1448202668037612e6
1.1530436788743434e6
1.1606689163976668e6
1.167886896175674e6
1.1742757772308665e6
1.180462782966439e6
1.1852204664847727e6
1.190563919981207e6
1.1927833797707686e6
1.198292643623976e6
1.1955125282674148e6
1.2050329162476691e6
99999.99379853425
100000.0107412218
99999.9821827671
100000.03027936777
99999.94936465836
100000.0853798769
99999.85691465379
100000.24046159389
99999.59674512791
100000.67724075525
99998.86218278162
100001.91664853386
99996.75827406604
100005.52358457631
99990.46924719997
100016.76907779451
99969.55341118223
100057.68003410996
99884.01388805364
100248.91453669833
99427.09208177893
101411.8737348306
96432.60445709585
110045.12813815851
75579.95921115395
275479.65908584214
756211.753763832
1.0470852308577527e6
1.0587625866699587e6
1.0706838872823925e6
1.0823497540115046e6
1.0932581455558683e6
1.1037243725973256e6
1.1136652417469444e6
1.123122694547622e6
1.1321094648791964e6
1.1405871089197022e6
1.1486137428537584e6
1.156046603522377e6
1.163074419440668e6
1.169284620444019e6
1.17529642063736e6
1.1798998482672202e6
1.1850955231380968e6
1.1871873853485284e6
1.1926223332733463e6
1.1896647961548392e6
1.199447308815217e6
99999.99514365243
100000.00832176677
99999.9861652724
100000.02337034307
99999.96099163863
100000.06546205666
99999.89070814985
100000.18278570082
99999.69492333606
100000.50975203456
99999.14783887795
100001.42888411538
99997.59173158612
100004.0980897949
99992.91053964988
100012.58652835565
99976.7301546821
100045.4004166175
99905.00863180753
100213.5994360783
99485.43819359035
101321.78440054868
96551.59408377658
109947.94570279637
75254.0922169316
252999.32712315134
727867.1460775728
1.0386528439353346e6
1.0575851558880669e6
1.0679763157332418e6
1.0798664076488058e6
1.0905981678094273e6
1.1009637696923946e6
1.1107717037221098e6
1.120096075063401e6
1.1289461328769438e6
1.1372905740851678e6
1.1451894009089253e6
1.1525068264444154e6
1.1594307704676394e6
1.1655592314060447e6
1.1715032353441569e6
1.1760679695148852e6
1.181238476179075e6
1.1833157079976576e6
1.1887949277503605e6
1.1857097452774094e6
1.1958688082495665e6
99999.9964621511
100000.00597474111
99999.99002700443
100000.01671161047
99999.9721652036
100000.04640410065
99999.92293543392
100000.12796602184
99999.78798693405
100000.35131978153
99999.41773196872
100000.96799123957
99998.38071360499
100002.74280851964
99995.24993026757
100008.52557499065
99983.84497783548
100032.82384193316
99927.61354127665
100172.47886561046
99562.07048948175
101175.96490357463
96828.14530684332
109365.25775071749
76046.1642676945
227505.5529434008
692845.7842944743
1.026805325317396e6
1.055918977876939e6
1.064291324216394e6
1.0763352285192157e6
1.0867661849610407e6
1.096919748472149e6
1.106485025916486e6
1.1155653812728666e6
1.124163862360966e6
1.132253607503375e6
1.1398941169520202e6
1.146954644966642e6
1.1536199024018154e6
1.159497253923529e6
1.1651881251356907e6
1.1695145308796624e6
1.1744520558382722e6
1.1763038108334455e6
1.1816515339193437e6
1.1782594234576395e6
1.1888138950510547e6
99999.997666839
100000.00386376133
99999.9934970615
100000.01078534797
99999.9820564438
100000.02966340382
99999.95105135656
100000.08048299588
99999.8680411897
100000.21590977893
99999.64709814363
100000.57797195767
99999.04693955193
100001.59688798669
99997.24074816026
100005.0198525448
99990.1456806754
100021.21430866024
99949.80691521922
100128.37978050332
99654.12366720848
100972.80185187094
97282.59501331908
108188.81672767109
78337.44393563505
200025.53898173053
651090.9205532161
1.0109188565862707e6
1.054140618908807e6
1.0602198576469678e6
1.0724544722665176e6
1.0825889346080902e6
1.0925264907323408e6
1.1018424325142521e6
1.110667535990941e6
1.1190015151633783e6
1.1268236192971978e6
1.1341957007941937e6
1.140995796340174e6
1.1474101892529328e6
1.1530617799752178e6
1.1585487720996428e6
1.1627152710668372e6
1.1675303334054719e6
1.1692878446898798e6
1.1746575920866241e6
1.1710513244059656e6
1.1821618977634434e6
99999.99870362239
100000.00208585145
99999.99641436459
100000.00587177678
99999.99018512186
100000.01607839394
99999.97358947094
100000.04293387575
99999.93045414696
100000.11187536379
99999.82074745475
100000.28672295582
99999.53878156378
100000.75658789912
99998.70256260542
100002.40839560285
99994.99497021893
100011.75873222639
99969.40345927242
100085.1592122001
99755.18372438682
100721.3905861267
97907.19115139304
106418.02975752827
82312.96407687238
171760.27570930985
602542.4274711924
989756.7199029187
1.0519259504863028e6
1.0555652749265754e6
1.067907760161839e6
1.0776938135728757e6
1.0873419232185918e6
1.0963356624004245e6
1.1048243644826536e6
1.1128045542315214e6
1.1202578641721513e6
1.1272446647700742e6
1.1336458499932366e6
1.1396421897615257e6
1.144861769043977e6
1.1498915925949384e6
1.1535847519431212e6
1.1579137614519156e6
1.1591525084127008e6
1.164155619038055e6
1.1599053211910902e6
1.171555830506607e6
99999.99955463677
100000.0006636892
99999.99874235182
100000.00201879106
99999.99648122392
100000.00574261103
99999.99041752529
100000.01551150424
99999.97490721196
100000.03983156812
99999.93731054172
100000.09754752011
99999.84801763552
100000.24236768975
99999.58491009881
100000.81400195802
99998.09708876783
100005.16211055173
99984.72962884018
100046.76863796524
99855.93297955772
100444.68352449527
98654.1954234714
104194.71447910709
87838.69384003623
144167.26628339005
547524.4472178436
962065.0218428811
1.049028470233787e6
1.0505099284743513e6
1.0628255593081743e6
1.072257330352275e6
1.0815695203996731e6
1.0901987378856004e6
1.0983010634074642e6
1.1058736877667077e6
1.1129015121610349e6
1.119447251352957e6
1.1254009975893414e6
1.1309481767821964e6
1.1357377910770809e6
1.1403640087730333e6
1.1437141238490976e6
1.1477731726598083e6
1.1488083577263101e6
1.1538039713514536e6
1.1492429070933755e6
1.1617292231654902e6
100000.00023206198
99999.99955750607
100000.00055071563
99999.99907414231
100000.00123606366
99999.99808155913
100000.00263178823
99999.99613686837
100000.00528900843
99999.99259558818
100000.00988616023
99999.9869614515
100000.0159224481
99999.9838689597
100000.00245596364
100000.06502926338
99999.66660503321
100001.29822734487
99995.32341514497
100015.94417477361
99946.54483085476
100173.9161365344
99438.20781564135
101799.57822800176
94358.1790013789
118951.04516325414
486791.4075807056
926388.436965574
1.0448354110934591e6
1.045131385973301e6
1.0571497595951208e6
1.0662213327786883e6
1.075127648142809e6
1.0833264097155717e6
1.090962251735273e6
1.0980332276136968e6
1.104520838836523e6
1.1104819953926743e6
1.115801783589311e6
1.1206515581300233e6
1.124669156452342e6
1.1284252040062882e6
1.1307825108880629e6
1.1337387949124211e6
1.1334733265839864e6
1.1373553636851523e6
1.1311509319961339e6
1.144237915355512e6
100000.00076417289
99999.99869481784
100000.00196595967
99999.99677879461
100000.00493853704
99999.99214767612
100000.0120366692
99999.98137291457
100000.02810663352
99999.9579021823
100000.06146366124
99999.91217252507
100000.12142445664
99999.8374247766
100000.21168200362
99999.71825344373
100000.42923339125
99999.10848555306
100002.34532636924
99992.88739356234
100020.31080685143
99940.52410341427
100151.46993492401
99598.17933313134
100877.96721751858
98027.91749373148
421708.8798681911
881249.5996873573
1.0383793635485682e6
1.039589025148378e6
1.0509026350575758e6
1.0596340638676174e6
1.0680709362083278e6
1.0757823259187322e6
1.0828830891342245e6
1.089376018259388e6
1.0952401203527697e6
1.1005314286338927e6
1.1051408489212717e6
1.1092443533548876e6
1.1125054045663783e6
1.1155143262268968e6
1.1171973635698128e6
1.1195894154402069e6
1.118931263865179e6
1.1226735633996646e6
1.1161301793202616e6
1.1303352292550842e6
100000.00117815424
99999.99800896077
100000.00310542814
99999.99489517369
100000.00804059282
99999.98706031399
100000.02033035923
99999.96793602844
100000.04969584511
99999.92353937309
100000.11553356881
99999.82813906045
100000.25048428406
99999.64025556503
100000.51722871407
99999.21499143283
100001.37712048546
99996.93916818085
100008.23633945758
99975.16577950523
100075.44129077363
99767.63127895017
100691.21693739768
97946.31207337503
106121.83518660667
83285.91372754969
354334.53062803956
825319.3862679598
1.0281746344294235e6
1.0340159382933012e6
1.0440836504688907e6
1.0525046767049439e6
1.0604046013312214e6
1.0675623983753794e6
1.0740436906309386e6
1.0798534812893665e6
1.0849580732482781e6
1.0893974180399908e6
1.0930401198934193e6
1.0960251618676283e6
1.0979621859696745e6
1.0993677327258883e6
1.099032931055819e6
1.0989452969897904e6
1.0949967611926806e6
1.0953608771837389e6
1.0838001309812618e6
1.0979178760408564e6
100000.00148620007
99999.99747177589
100000.0040196139
99999.99332220342
100000.010738629
99999.98242934697
100000.0282884002
99999.95427269055
100000.07317707644
99999.88321922848
100000.18477784486
99999.70929046457
100000.45453264588
99999.28944996903
100001.12318320098
99998.15671577162
100003.26927952326
99993.40898291032
100015.30840771917
99959.62563213501
100113.59456723189
99666.03552653926
100987.01539293944
97092.77953613792
108915.53507890856
76063.27814775812
287370.380918716
757770.616037188
1.0122008223238558e6
1.0284940816299075e6
1.0367317977994881e6
1.0448688814578722e6
1.0521731048678434e6
1.0587159800715381e6
1.0645035236427197e6
1.069543520937842e6
1.0737905039078186e6
1.0772727439385597e6
1.0798518373132655e6
1.0816572236738026e6
1.0823181880595954e6
1.0823641464599671e6
1.0807116206820456e6
1.0793480713099376e6
1.0746038021858605e6
1.0740745384872756e6
1.062519103378105e6
1.075873142736987e6
100000.00168085977
99999.99710566273
100000.0046690286
99999.99214382075
100000.01287344778
99999.97856166991
100000.03533608375
99999.94144200587
100000.09663304065
99999.840330578
100000.2633551181
99999.56533226134
100000.71821669387
99998.80741652672
100002.00130295771
99996.56728932966
100006.11891263742
99988.38296787387
100023.98304867081
99945.28114905767
100136.16528793491
99635.42139496011
101021.45324495694
97098.18701846767
108780.28509223387
76481.3993706083
223920.88598096915
678643.5436389411
987961.4597468269
1.0229398254597367e6
1.0289351041063543e6
1.0367665539825241e6
1.0434221679541157e6
1.0492841646444628e6
1.0542970490366882e6
1.0584632576176194e6
1.0617134395419273e6
1.0640431046526216e6
1.0652648349974384e6
1.0654288530267759e6
1.064032635557906e6
1.061398166119526e6
1.05604500493375e6
1.0495312351666365e6
1.0368490438089203e6
1.0262386180083072e6
996832.9530759816
1.0034029161944813e6
100000.00174222288
99999.99696754692
100000.00495009442
99999.99157987752
100000.01401394971
99999.97631475067
100000.03979374064
99999.9327156387
100000.1137292646
99999.8070553392
100000.32797218829
99999.44048507712
100000.95824572456
99998.34942099817
100002.86605870264
99994.96141064608
100009.0248893995
99983.36044644288
100031.97050583053
99934.92919608824
100141.75228979197
99667.09424543116
100838.98885244323
97789.01663990902
106330.94941925151
83080.77789311887
167361.44782440652
589114.1786504328
952548.0691595239
1.0168740482889949e6
1.020843674863176e6
1.0282465358744373e6
1.0342144797738886e6
1.0393349986342175e6
1.0435062774877776e6
1.0467184756575987e6
1.0488781534186911e6
1.049948579471683e6
1.0497074424444588e6
1.0481500474210236e6
1.0447482035576544e6
1.0397468943345596e6
1.031813736119019e6
1.0223131917971448e6
1.0075335218240595e6
992670.4821716821
964513.0442800192
931364.5632368377
100000.00165405526
99999.99711028374
100000.00476189611
99999.9918530885
100000.01370528448
99999.97662249053
100000.03977124374
99999.93188869898
100000.11688964399
99999.79841862852
100000.34897546528
99999.3929295719
100001.0611670609
99998.13490511775
100003.29759254443
99994.12939288373
100010.53620572732
99980.89345882801
100035.11323593027
99934.23248348448
100126.36482468057
99748.01971635866
100527.34437958316
98831.66007430968
102828.55028834316
93014.51144259796
121543.22030717356
491845.9216674529
902712.845890439
1.0090194633345729e6
1.0126299288354901e6
1.0193460188330626e6
1.0246085621475608e6
1.0289351079216507e6
1.0322073896894195e6
1.0343920844277423e6
1.0353634093107292e6
1.0350371481252114e6
1.0331210360685574e6
1.0294916908088768e6
1.0234362187078703e6
1.0148063205489899e6
1.0016085818011137e6
983603.1331924795
954044.0547473747
911078.3891369699
825343.2561607535
673617.04224369
100000.0014213183
99999.99753943742
100000.00408325614
99999.99303242633
100000.01177057235
99999.9799030521
100000.03432295646
99999.94102533412
100000.10169523276
99999.82371788147
100000.3070352779
99999.46241164255
100000.94606488023
99998.32679684018
100002.97216143193
99994.70277266283
100009.45446682826
99983.15369122554
100029.80080299766
99948.11495070692
100087.28852538201
99862.4877630759
100183.13935976305
99862.38301746153
99644.46866863577
102454.12377353568
90470.46467907484
391502.12354459765
835375.7357251144
996876.5897270765
1.0044072002560627e6
1.0100892886321617e6
1.0146606982817682e6
1.0181620539869572e6
1.020501284495635e6
1.0216156024662458e6
1.021348492869081e6
1.019565131087736e6
1.0159130619487566e6
1.0101593883439047e6
1.001453174313431e6
989380.5302622194
971652.6873228773
947348.741568737
909487.716980667
854721.3194796143
759277.4258563112
603261.2200641641
100000.00107985818
99999.99818814581
100000.00301978855
99999.99493471536
100000.00850850169
99999.98565779731
100000.02425897754
99999.95881770743
100000.07020345575
99999.87981224593
100000.20670577962
99999.6428753204
100000.61967661101
99998.92092230204
100001.88270076664
99996.7187971269
100005.67998469189
99990.33278587656
100015.84534885538
99976.06332271062
100029.01119927192
99990.20824753176
99885.89662743991
100598.29460045624
97722.50975635313
107916.31801851628
76435.19513033576
294589.78174013214
748973.9490599899
976713.8894331584
996161.085262501
1.0005313442181505e6
1.0044394918602377e6
1.0071067557586263e6
1.0085003456039266e6
1.0085303699530617e6
1.0070111042543569e6
1.0037672635804074e6
998391.0625786602
990568.2982454876
979351.7837507587
964180.000279057
942656.5519827182
913731.0212176867
870807.0953633892
811690.8287793726
717274.4261377795
584246.2547898606
100000.00069231486
99999.99892563504
100000.00179201938
99999.99714491084
100000.00466520747
99999.99250911667
100000.01210916492
99999.9805837946
100000.03110024851
99999.95052534861
100000.07820450405
99999.87772456378
100000.18823344423
99999.71759310299
100000.40487617072
99999.47085710766
100000.54077388144
99999.94026062252
99997.9112000752
100009.36495791718
99967.90309993978
100100.04602517045
99696.94870023843
100900.83001933093
97338.91596611071
108102.33946807358
77662.59366586679
208117.9685113468
644659.0379299643
943999.7752509917
987616.0701969183
990829.0309979693
994049.3921112756
995883.0256601966
996334.4603523841
995293.0804458461
992549.5783964391
987899.785674563
980898.7474857087
971187.5023311822
957776.9001024774
940080.725961831
915735.5287955907
883938.0274486076
838640.611008859
779594.3000805535
690871.6230423178
579975.3598774488
100000.00033090908
99999.99959813838
100000.0006650297
99999.99915586504
100000.00117269684
99999.9987027747
100000.00116540893
100000.00009988046
99999.99619323587
100000.0133557694
99999.96457650096
100000.08433745884
99999.81075978526
100000.41020885142
99999.13003023896
100001.82052283704
99996.21780754531
100007.83961366459
99983.70376528481
100034.12203445076
99927.54140048764
100156.6725199062
99651.67483924697
100797.92826870468
98108.31320703881
104770.01184360732
88270.50261346676
138920.12979402707
526505.2633748283
893447.7203310437
977583.9702014613
981186.8987460498
983599.8780054661
984604.1492730157
984131.4814803719
982055.0510441144
978149.8624335831
972192.5725970347
963722.2674287144
952368.6581117973
937149.6194483809
917534.4939265052
891297.6073379307
857999.5364284881
812297.610281689
755404.5405337515
674452.3514821891
580614.1128057025
100000.00005470304
100000.00008317041
99999.9998525513
100000.00056101468
99999.99877988666
100000.00283024377
99999.99407248588
100000.01236272976
99999.97498461732
100000.05016686305
99999.90059076996
100000.19579507144
99999.61647571858
100000.74872198832
99998.54218633854
100002.8331347351
99994.50345475659
100010.6418788936
99979.45786666438
100039.43922671654
99924.94811135765
100140.42520060828
99744.53681628765
100438.58495550018
99328.92935742303
100731.41326950399
100467.1058988048
93791.27533801863
402368.02094347536
819489.2623213851
962809.3537810345
971610.4454486222
973138.9323421083
973349.954423566