# vtk DataFile Version 2.0
JuliaCFD
ASCII
DATASET UNSTRUCTURED_GRID

POINTS 32898 float
0.0 0.0 -0.05
0.0125 0.0 -0.05
0.025 0.0 -0.05
0.0375 0.0 -0.05
0.05 0.0 -0.05
0.0625 0.0 -0.05
0.075 0.0 -0.05
0.0875 0.0 -0.05
0.1 0.0 -0.05
0.1125 0.0 -0.05
0.125 0.0 -0.05
0.1375 0.0 -0.05
0.15 0.0 -0.05
0.1625 0.0 -0.05
0.175 0.0 -0.05
0.1875 0.0 -0.05
0.2 0.0 -0.05
0.2125 0.0 -0.05
0.225 0.0 -0.05
0.2375 0.0 -0.05
0.25 0.0 -0.05
0.2625 0.0 -0.05
0.275 0.0 -0.05
0.2875 0.0 -0.05
0.3 0.0 -0.05
0.3125 0.0 -0.05
0.325 0.0 -0.05
0.3375 0.0 -0.05
0.35 0.0 -0.05
0.3625 0.0 -0.05
0.375 0.0 -0.05
0.3875 0.0 -0.05
0.4 0.0 -0.05
0.4125 0.0 -0.05
0.425 0.0 -0.05
0.4375 0.0 -0.05
0.45 0.0 -0.05
0.4625 0.0 -0.05
0.475 0.0 -0.05
0.4875 0.0 -0.05
0.5 0.0 -0.05
0.5125 0.0 -0.05
0.525 0.0 -0.05
0.5375 0.0 -0.05
0.55 0.0 -0.05
0.5625 0.0 -0.05
0.575 0.0 -0.05
0.5875 0.0 -0.05
0.6 0.0 -0.05
0.0 0.0125 -0.05
0.0125 0.0125 -0.05
0.025 0.0125 -0.05
0.0375 0.0125 -0.05
0.05 0.0125 -0.05
0.0625 0.0125 -0.05
0.075 0.0125 -0.05
0.0875 0.0125 -0.05
0.1 0.0125 -0.05
0.1125 0.0125 -0.05
0.125 0.0125 -0.05
0.1375 0.0125 -0.05
0.15 0.0125 -0.05
0.1625 0.0125 -0.05
0.175 0.0125 -0.05
0.1875 0.0125 -0.05
0.2 0.0125 -0.05
0.2125 0.0125 -0.05
0.225 0.0125 -0.05
0.2375 0.0125 -0.05
0.25 0.0125 -0.05
0.2625 0.0125 -0.05
0.275 0.0125 -0.05
0.2875 0.0125 -0.05
0.3 0.0125 -0.05
0.3125 0.0125 -0.05
0.325 0.0125 -0.05
0.3375 0.0125 -0.05
0.35 0.0125 -0.05
0.3625 0.0125 -0.05
0.375 0.0125 -0.05
0.3875 0.0125 -0.05
0.4 0.0125 -0.05
0.4125 0.0125 -0.05
0.425 0.0125 -0.05
0.4375 0.0125 -0.05
0.45 0.0125 -0.05
0.4625 0.0125 -0.05
0.475 0.0125 -0.05
0.4875 0.0125 -0.05
0.5 0.0125 -0.05
0.5125 0.0125 -0.05
0.525 0.0125 -0.05
0.5375 0.0125 -0.05
0.55 0.0125 -0.05
0.5625 0.0125 -0.05
0.575 0.0125 -0.05
0.5875 0.0125 -0.05
0.6 0.0125 -0.05
0.0 0.025 -0.05
0.0125 0.025 -0.05
0.025 0.025 -0.05
0.0375 0.025 -0.05
0.05 0.025 -0.05
0.0625 0.025 -0.05
0.075 0.025 -0.05
0.0875 0.025 -0.05
0.1 0.025 -0.05
0.1125 0.025 -0.05
0.125 0.025 -0.05
0.1375 0.025 -0.05
0.15 0.025 -0.05
0.1625 0.025 -0.05
0.175 0.025 -0.05
0.1875 0.025 -0.05
0.2 0.025 -0.05
0.2125 0.025 -0.05
0.225 0.025 -0.05
0.2375 0.025 -0.05
0.25 0.025 -0.05
0.2625 0.025 -0.05
0.275 0.025 -0.05
0.2875 0.025 -0.05
0.3 0.025 -0.05
0.3125 0.025 -0.05
0.325 0.025 -0.05
0.3375 0.025 -0.05
0.35 0.025 -0.05
0.3625 0.025 -0.05
0.375 0.025 -0.05
0.3875 0.025 -0.05
0.4 0.025 -0.05
0.4125 0.025 -0.05
0.425 0.025 -0.05
0.4375 0.025 -0.05
0.45 0.025 -0.05
0.4625 0.025 -0.05
0.475 0.025 -0.05
0.4875 0.025 -0.05
0.5 0.025 -0.05
0.5125 0.025 -0.05
0.525 0.025 -0.05
0.5375 0.025 -0.05
0.55 0.025 -0.05
0.5625 0.025 -0.05
0.575 0.025 -0.05
0.5875 0.025 -0.05
0.6 0.025 -0.05
0.0 0.0375 -0.05
0.0125 0.0375 -0.05
0.025 0.0375 -0.05
0.0375 0.0375 -0.05
0.05 0.0375 -0.05
0.0625 0.0375 -0.05
0.075 0.0375 -0.05
0.0875 0.0375 -0.05
0.1 0.0375 -0.05
0.1125 0.0375 -0.05
0.125 0.0375 -0.05
0.1375 0.0375 -0.05
0.15 0.0375 -0.05
0.1625 0.0375 -0.05
0.175 0.0375 -0.05
0.1875 0.0375 -0.05
0.2 0.0375 -0.05
0.2125 0.0375 -0.05
0.225 0.0375 -0.05
0.2375 0.0375 -0.05
0.25 0.0375 -0.05
0.2625 0.0375 -0.05
0.275 0.0375 -0.05
0.2875 0.0375 -0.05
0.3 0.0375 -0.05
0.3125 0.0375 -0.05
0.325 0.0375 -0.05
0.3375 0.0375 -0.05
0.35 0.0375 -0.05
0.3625 0.0375 -0.05
0.375 0.0375 -0.05
0.3875 0.0375 -0.05
0.4 0.0375 -0.05
0.4125 0.0375 -0.05
0.425 0.0375 -0.05
0.4375 0.0375 -0.05
0.45 0.0375 -0.05
0.4625 0.0375 -0.05
0.475 0.0375 -0.05
0.4875 0.0375 -0.05
0.5 0.0375 -0.05
0.5125 0.0375 -0.05
0.525 0.0375 -0.05
0.5375 0.0375 -0.05
0.55 0.0375 -0.05
0.5625 0.0375 -0.05
0.575 0.0375 -0.05
0.5875 0.0375 -0.05
0.6 0.0375 -0.05
0.0 0.05 -0.05
0.0125 0.05 -0.05
0.025 0.05 -0.05
0.0375 0.05 -0.05
0.05 0.05 -0.05
0.0625 0.05 -0.05
0.075 0.05 -0.05
0.0875 0.05 -0.05
0.1 0.05 -0.05
0.1125 0.05 -0.05
0.125 0.05 -0.05
0.1375 0.05 -0.05
0.15 0.05 -0.05
0.1625 0.05 -0.05
0.175 0.05 -0.05
0.1875 0.05 -0.05
0.2 0.05 -0.05
0.2125 0.05 -0.05
0.225 0.05 -0.05
0.2375 0.05 -0.05
0.25 0.05 -0.05
0.2625 0.05 -0.05
0.275 0.05 -0.05
0.2875 0.05 -0.05
0.3 0.05 -0.05
0.3125 0.05 -0.05
0.325 0.05 -0.05
0.3375 0.05 -0.05
0.35 0.05 -0.05
0.3625 0.05 -0.05
0.375 0.05 -0.05
0.3875 0.05 -0.05
0.4 0.05 -0.05
0.4125 0.05 -0.05
0.425 0.05 -0.05
0.4375 0.05 -0.05
0.45 0.05 -0.05
0.4625 0.05 -0.05
0.475 0.05 -0.05
0.4875 0.05 -0.05
0.5 0.05 -0.05
0.5125 0.05 -0.05
0.525 0.05 -0.05
0.5375 0.05 -0.05
0.55 0.05 -0.05
0.5625 0.05 -0.05
0.575 0.05 -0.05
0.5875 0.05 -0.05
0.6 0.05 -0.05
0.0 0.0625 -0.05
0.0125 0.0625 -0.05
0.025 0.0625 -0.05
0.0375 0.0625 -0.05
0.05 0.0625 -0.05
0.0625 0.0625 -0.05
0.075 0.0625 -0.05
0.0875 0.0625 -0.05
0.1 0.0625 -0.05
0.1125 0.0625 -0.05
0.125 0.0625 -0.05
0.1375 0.0625 -0.05
0.15 0.0625 -0.05
0.1625 0.0625 -0.05
0.175 0.0625 -0.05
0.1875 0.0625 -0.05
0.2 0.0625 -0.05
0.2125 0.0625 -0.05
0.225 0.0625 -0.05
0.2375 0.0625 -0.05
0.25 0.0625 -0.05
0.2625 0.0625 -0.05
0.275 0.0625 -0.05
0.2875 0.0625 -0.05
0.3 0.0625 -0.05
0.3125 0.0625 -0.05
0.325 0.0625 -0.05
0.3375 0.0625 -0.05
0.35 0.0625 -0.05
0.3625 0.0625 -0.05
0.375 0.0625 -0.05
0.3875 0.0625 -0.05
0.4 0.0625 -0.05
0.4125 0.0625 -0.05
0.425 0.0625 -0.05
0.4375 0.0625 -0.05
0.45 0.0625 -0.05
0.4625 0.0625 -0.05
0.475 0.0625 -0.05
0.4875 0.0625 -0.05
0.5 0.0625 -0.05
0.5125 0.0625 -0.05
0.525 0.0625 -0.05
0.5375 0.0625 -0.05
0.55 0.0625 -0.05
0.5625 0.0625 -0.05
0.575 0.0625 -0.05
0.5875 0.0625 -0.05
0.6 0.0625 -0.05
0.0 0.075 -0.05
0.0125 0.075 -0.05
0.025 0.075 -0.05
0.0375 0.075 -0.05
0.05 0.075 -0.05
0.0625 0.075 -0.05
0.075 0.075 -0.05
0.0875 0.075 -0.05
0.1 0.075 -0.05
0.1125 0.075 -0.05
0.125 0.075 -0.05
0.1375 0.075 -0.05
0.15 0.075 -0.05
0.1625 0.075 -0.05
0.175 0.075 -0.05
0.1875 0.075 -0.05
0.2 0.075 -0.05
0.2125 0.075 -0.05
0.225 0.075 -0.05
0.2375 0.075 -0.05
0.25 0.075 -0.05
0.2625 0.075 -0.05
0.275 0.075 -0.05
0.2875 0.075 -0.05
0.3 0.075 -0.05
0.3125 0.075 -0.05
0.325 0.075 -0.05
0.3375 0.075 -0.05
0.35 0.075 -0.05
0.3625 0.075 -0.05
0.375 0.075 -0.05
0.3875 0.075 -0.05
0.4 0.075 -0.05
0.4125 0.075 -0.05
0.425 0.075 -0.05
0.4375 0.075 -0.05
0.45 0.075 -0.05
0.4625 0.075 -0.05
0.475 0.075 -0.05
0.4875 0.075 -0.05
0.5 0.075 -0.05
0.5125 0.075 -0.05
0.525 0.075 -0.05
0.5375 0.075 -0.05
0.55 0.075 -0.05
0.5625 0.075 -0.05
0.575 0.075 -0.05
0.5875 0.075 -0.05
0.6 0.075 -0.05
0.0 0.0875 -0.05
0.0125 0.0875 -0.05
0.025 0.0875 -0.05
0.0375 0.0875 -0.05
0.05 0.0875 -0.05
0.0625 0.0875 -0.05
0.075 0.0875 -0.05
0.0875 0.0875 -0.05
0.1 0.0875 -0.05
0.1125 0.0875 -0.05
0.125 0.0875 -0.05
0.1375 0.0875 -0.05
0.15 0.0875 -0.05
0.1625 0.0875 -0.05
0.175 0.0875 -0.05
0.1875 0.0875 -0.05
0.2 0.0875 -0.05
0.2125 0.0875 -0.05
0.225 0.0875 -0.05
0.2375 0.0875 -0.05
0.25 0.0875 -0.05
0.2625 0.0875 -0.05
0.275 0.0875 -0.05
0.2875 0.0875 -0.05
0.3 0.0875 -0.05
0.3125 0.0875 -0.05
0.325 0.0875 -0.05
0.3375 0.0875 -0.05
0.35 0.0875 -0.05
0.3625 0.0875 -0.05
0.375 0.0875 -0.05
0.3875 0.0875 -0.05
0.4 0.0875 -0.05
0.4125 0.0875 -0.05
0.425 0.0875 -0.05
0.4375 0.0875 -0.05
0.45 0.0875 -0.05
0.4625 0.0875 -0.05
0.475 0.0875 -0.05
0.4875 0.0875 -0.05
0.5 0.0875 -0.05
0.5125 0.0875 -0.05
0.525 0.0875 -0.05
0.5375 0.0875 -0.05
0.55 0.0875 -0.05
0.5625 0.0875 -0.05
0.575 0.0875 -0.05
0.5875 0.0875 -0.05
0.6 0.0875 -0.05
0.0 0.1 -0.05
0.0125 0.1 -0.05
0.025 0.1 -0.05
0.0375 0.1 -0.05
0.05 0.1 -0.05
0.0625 0.1 -0.05
0.075 0.1 -0.05
0.0875 0.1 -0.05
0.1 0.1 -0.05
0.1125 0.1 -0.05
0.125 0.1 -0.05
0.1375 0.1 -0.05
0.15 0.1 -0.05
0.1625 0.1 -0.05
0.175 0.1 -0.05
0.1875 0.1 -0.05
0.2 0.1 -0.05
0.2125 0.1 -0.05
0.225 0.1 -0.05
0.2375 0.1 -0.05
0.25 0.1 -0.05
0.2625 0.1 -0.05
0.275 0.1 -0.05
0.2875 0.1 -0.05
0.3 0.1 -0.05
0.3125 0.1 -0.05
0.325 0.1 -0.05
0.3375 0.1 -0.05
0.35 0.1 -0.05
0.3625 0.1 -0.05
0.375 0.1 -0.05
0.3875 0.1 -0.05
0.4 0.1 -0.05
0.4125 0.1 -0.05
0.425 0.1 -0.05
0.4375 0.1 -0.05
0.45 0.1 -0.05
0.4625 0.1 -0.05
0.475 0.1 -0.05
0.4875 0.1 -0.05
0.5 0.1 -0.05
0.5125 0.1 -0.05
0.525 0.1 -0.05
0.5375 0.1 -0.05
0.55 0.1 -0.05
0.5625 0.1 -0.05
0.575 0.1 -0.05
0.5875 0.1 -0.05
0.6 0.1 -0.05
0.0 0.1125 -0.05
0.0125 0.1125 -0.05
0.025 0.1125 -0.05
0.0375 0.1125 -0.05
0.05 0.1125 -0.05
0.0625 0.1125 -0.05
0.075 0.1125 -0.05
0.0875 0.1125 -0.05
0.1 0.1125 -0.05
0.1125 0.1125 -0.05
0.125 0.1125 -0.05
0.1375 0.1125 -0.05
0.15 0.1125 -0.05
0.1625 0.1125 -0.05
0.175 0.1125 -0.05
0.1875 0.1125 -0.05
0.2 0.1125 -0.05
0.2125 0.1125 -0.05
0.225 0.1125 -0.05
0.2375 0.1125 -0.05
0.25 0.1125 -0.05
0.2625 0.1125 -0.05
0.275 0.1125 -0.05
0.2875 0.1125 -0.05
0.3 0.1125 -0.05
0.3125 0.1125 -0.05
0.325 0.1125 -0.05
0.3375 0.1125 -0.05
0.35 0.1125 -0.05
0.3625 0.1125 -0.05
0.375 0.1125 -0.05
0.3875 0.1125 -0.05
0.4 0.1125 -0.05
0.4125 0.1125 -0.05
0.425 0.1125 -0.05
0.4375 0.1125 -0.05
0.45 0.1125 -0.05
0.4625 0.1125 -0.05
0.475 0.1125 -0.05
0.4875 0.1125 -0.05
0.5 0.1125 -0.05
0.5125 0.1125 -0.05
0.525 0.1125 -0.05
0.5375 0.1125 -0.05
0.55 0.1125 -0.05
0.5625 0.1125 -0.05
0.575 0.1125 -0.05
0.5875 0.1125 -0.05
0.6 0.1125 -0.05
0.0 0.125 -0.05
0.0125 0.125 -0.05
0.025 0.125 -0.05
0.0375 0.125 -0.05
0.05 0.125 -0.05
0.0625 0.125 -0.05
0.075 0.125 -0.05
0.0875 0.125 -0.05
0.1 0.125 -0.05
0.1125 0.125 -0.05
0.125 0.125 -0.05
0.1375 0.125 -0.05
0.15 0.125 -0.05
0.1625 0.125 -0.05
0.175 0.125 -0.05
0.1875 0.125 -0.05
0.2 0.125 -0.05
0.2125 0.125 -0.05
0.225 0.125 -0.05
0.2375 0.125 -0.05
0.25 0.125 -0.05
0.2625 0.125 -0.05
0.275 0.125 -0.05
0.2875 0.125 -0.05
0.3 0.125 -0.05
0.3125 0.125 -0.05
0.325 0.125 -0.05
0.3375 0.125 -0.05
0.35 0.125 -0.05
0.3625 0.125 -0.05
0.375 0.125 -0.05
0.3875 0.125 -0.05
0.4 0.125 -0.05
0.4125 0.125 -0.05
0.425 0.125 -0.05
0.4375 0.125 -0.05
0.45 0.125 -0.05
0.4625 0.125 -0.05
0.475 0.125 -0.05
0.4875 0.125 -0.05
0.5 0.125 -0.05
0.5125 0.125 -0.05
0.525 0.125 -0.05
0.5375 0.125 -0.05
0.55 0.125 -0.05
0.5625 0.125 -0.05
0.575 0.125 -0.05
0.5875 0.125 -0.05
0.6 0.125 -0.05
0.0 0.1375 -0.05
0.0125 0.1375 -0.05
0.025 0.1375 -0.05
0.0375 0.1375 -0.05
0.05 0.1375 -0.05
0.0625 0.1375 -0.05
0.075 0.1375 -0.05
0.0875 0.1375 -0.05
[...]
CELL_DATA 16128
SCALARS P float 1
LOOKUP_TABLE default
100000.00627627704
99999.98882400652
100000.0181321764
99999.96881447574
100000.05180163668
99999.91203269856
100000.14766428604
99999.7499226187
100000.42262825521
99999.28170796354
100001.2251822394
99997.89224869604
100003.66810315503
99993.49371696562
100011.85758907137
99977.50353494368
100044.8952971825
99904.53134052805
100216.59191656459
99478.0055533594
101337.55929210188
96538.52792405577
109948.19185366353
75367.99161134468
238535.32150947035
704177.3347000974
1.0261916492985738e6
1.049435866920415e6
1.058892219105365e6
1.0710535517630181e6
1.0820690551680855e6
1.092865295707542e6
1.1031650775930164e6
1.11305067891516e6
1.122480886935759e6
1.13148242381594e6
1.139997240846748e6
1.1480823112835805e6
1.1555818231268683e6
1.162687280794142e6
1.1689688833759737e6
1.1750601489278674e6
1.1797270835736007e6
1.1849867344022375e6
1.1871649881197205e6
1.1925591682313043e6
1.189992901144166e6
1.1989544829738573e6
100000.00628185933
99999.98889667518
100000.0181443168
99999.96885449767
100000.05194016855
99999.9117567123
100000.14850658046
99999.74816822477
100000.42636140138
99999.27450809024
100001.23859788234
99997.86877469886
100003.70658707719
99993.43710149522
100011.92581970425
99977.46635218839
100044.76854691791
99905.21610172439
100214.43365926085
99484.01272254421
101322.79723399165
96572.87204997001
109868.22917155799
75489.33282633209
235904.38932684922
701821.3505245232
1.0286458040671251e6
1.0541011268901997e6
1.0639319961422947e6
1.0764713428888223e6
1.087646597338132e6
1.098556278144677e6
1.1089431351969957e6
1.118914435276365e6
1.1284357387029526e6
1.1375365751008727e6
1.1461581515325056e6
1.1543555887726352e6
1.1619696309924521e6
1.1691887001494851e6
1.1755771246859918e6
1.1817661949508113e6
1.186510843843636e6
1.191834415123017e6
1.194032745206787e6
1.1994548086440833e6
1.1967998449022428e6
1.2058606288056802e6
100000.00531557792
99999.99066227104
100000.01523736138
99999.97396414603
100000.04329274686
99999.92674519359
100000.1228446498
99999.79248145773
100000.35008955792
99999.40621849863
100001.01123220698
99998.26190079487
100003.026559213
99994.61497371759
100009.88449881694
99981.01178691817
100038.60622008205
99915.98391406205
100195.56627110086
99517.44506992669
101262.2650888596
96681.53812118374
109640.82529310831
75811.71501817911
228160.85009035838
689959.7280034118
1.0225824960823614e6
1.0510612598654588e6
1.0599637171333784e6
1.0723619871920215e6
1.0833065937350274e6
1.09404479925311e6
1.104263163200275e6
1.1140683838850134e6
1.1234195454615224e6
1.132345230900614e6
1.1407879472897486e6
1.1488038221869187e6
1.1562383358199368e6
1.1632803104892862e6
1.1695032963064164e6
1.1755347432046507e6
1.1801470413622034e6
1.1853506901809352e6
1.1874656380716155e6
1.1928362597920934e6
1.1901029531129939e6
1.1993199977299082e6
100000.00399733867
99999.99308047773
100000.01126913974
99999.98093159625
100000.03152203231
99999.94710303356
100000.08806233505
99999.85238212503
100000.24728037372
99999.58316319539
100000.70689128817
99998.7860244711
100002.12368128524
99996.17260438265
100007.19394299896
99985.67739631778
100030.48375490858
99930.28458175766
100170.07548236004
99564.08545984361
101173.11051592192
96854.71823381027
109236.79309966296
76500.5299973017
216873.83165515916
673637.1074539272
1.0171161433065064e6
1.051306654310396e6
1.0594731558324695e6
1.0721517228877172e6
1.0831101199413885e6
1.093875354415036e6
1.1040912076645799e6
1.1138877188772156e6
1.1232281680605365e6
1.1321463880661335e6
1.1405885874470784e6
1.1486120879008216e6
1.1560655428018053e6
1.1631355132279117e6
1.1693999001165938e6
1.1754780538798166e6
1.1801487546246357e6
1.1854090735813896e6
1.187573391486611e6
1.1930145075056136e6
1.1902190460688525e6
1.1996884394518237e6
100000.00248398316
99999.99584739626
100000.00673978613
99999.98885813469
100000.01816537866
99999.97013327635
100000.04881705047
99999.91978457203
100000.13187216983
99999.78136526558
100000.36653759626
99999.37167044006
100001.11442313521
99997.91776372866
100004.16339807141
99990.98450687963
100021.08752510582
99947.27324059117
100138.53729943915
99625.1076500941
101047.4514525518
97120.04471214431
108563.20404178898
77798.4735679321
202122.47664727966
650790.1364507858
1.0078565228512855e6
1.0498872511924303e6
1.0566367275612077e6
1.0693339947242583e6
1.0800496468090909e6
1.0906321406141277e6
1.100654927675627e6
1.1102602818548267e6
1.1194075120237e6
1.1281307989054157e6
1.1363779724043068e6
1.1442063520206232e6
1.1514690473515475e6
1.1583505193522223e6
1.164437738740956e6
1.1703420402365846e6
1.1748593206334708e6
1.1799723116982474e6
1.1820087048901059e6
1.1873748153959769e6
1.1844010188402173e6
1.1941317629530074e6
100000.00095201125
99999.99862310657
100000.00220780047
99999.9967414515
100000.00493565586
99999.99283424782
100000.0102925065
99999.9856886541
100000.01940302788
99999.97402956554
100000.03616095986
99999.94026946393
100000.13202518992
99999.62662841736
100001.16313809041
99996.33367329973
100011.34872781506
99965.59923332134
100102.5864991522
99699.46902049801
100882.06799164596
97495.32105475407
107552.58124261934
79927.92921612019
184719.4117488398
622052.547865516
995795.1471586709
1.0488633206331863e6
1.0540952599618689e6
1.0669660095177444e6
1.0775312929236612e6
1.0880083479898695e6
1.097902559040355e6
1.1073742805243842e6
1.1163839112444108e6
1.124969513301732e6
1.1330835098822142e6
1.1407852731010378e6
1.1479343488228482e6
1.1547141881119e6
1.1607219406674039e6
1.1665606502895732e6
1.1710409216846842e6
1.176130007940702e6
1.1781522085920002e6
1.1835625908414961e6
1.1804608977151036e6
1.1905677623452798e6
99999.99955901822
100000.0011054993
99999.99816874294
100000.00369259955
99999.99335234717
100000.01253822252
99999.97711154116
100000.0420256863
99999.92391001957
100000.13669951467
99999.75831475934
100000.41783056552
99999.30485066425
100001.07718514686
99998.57470644986
100001.07505764363
100002.3522788777
99983.50285618873
100064.87732788105
99783.68501107483
100679.77269324652
97985.8050175182
106173.22594539767
83067.03484662151
165401.20327695727
587126.5975090686
979562.9417478201
1.0472326605527457e6
1.050700585511859e6
1.063628255655298e6
1.0739355720137742e6
1.0841995294280995e6
1.0938627107828804e6
1.1030973680457277e6
1.111863168682329e6
1.1201992125893005e6
1.1280606033319063e6
1.135506645277828e6
1.1424017064464958e6
1.1489260088589368e6
1.1546857959216519e6
1.1602744897305737e6
1.1645190688272382e6
1.1693773752546422e6
1.1711753375896923e6
1.17645460541788e6
1.1730458823294092e6
1.1835475831437993e6
99999.99841733089
100000.00308231795
99999.99496995263
100000.00909290831
99999.98447195989
100000.02739093077
99999.95249968897
100000.08312733195
99999.85536385611
100000.25173379033
99999.56432872522
100000.74844026641
99998.73311399158
100002.08901892882
99996.72398680105
100004.61811005203
99995.1679141837
99999.0459835512
100028.89130176751
99871.52934507211
100451.87005754738
98575.78747339382
104460.07276622634
87259.07511761202
145164.80846492146
546231.725995697
958528.7892245398
1.0451810098626995e6
1.046998827551832e6
1.0599458213543443e6
1.0700116542591453e6
1.080056577927634e6
1.0894828171252077e6
1.0984693586735516e6
1.1069779670533347e6
1.1150497506848834e6
1.1226445628027923e6
1.129824121636859e6
1.1364612684617273e6
1.142737623180327e6
1.1482745748539704e6
1.1536621893609874e6
1.157749003999815e6
1.1624863177930512e6
1.1641904646074423e6
1.1694914138072876e6
1.165868184188445e6
1.1769248453858574e6
99999.99757821941
100000.00446401401
99999.99275516973
100000.01269910802
99999.97869924702
100000.03670230665
99999.9376397841
100000.10692487992
99999.81743809627
100000.31246997083
99999.46652586384
100000.90881598067
99998.46171515145
100002.57379506722
99995.78832499437
100006.59978466808
99990.55564496091
100010.60244331595
99998.21164878245
99955.00945163111
100216.74310638398
99225.38038491683
102529.64785996792
92336.62679873285
125173.07572829687
499679.9284614873
931584.3966863845
1.0422284009468007e6
1.0428474554322719e6
1.0556389288152205e6
1.0654300338197737e6
1.075186912284572e6
1.0843108118077752e6
1.092976863274391e6
1.1011495946958382e6
1.1088693412415986e6
1.116097884848093e6
1.1228953376682547e6
1.1291372799119265e6
1.1349997331714511e6
1.1401090346821323e6
1.1450440167408634e6
1.148661813413136e6
1.152916967315103e6
1.1541054770627564e6
1.1590408182659252e6
1.1547745809842858e6
1.1663696142336822e6
99999.99703126254
100000.00528732604
99999.99145716715
100000.01466122716
99999.97574570737
100000.04104043184
99999.93146138424
100000.11541141094
99999.8065070018
100000.32536508559
99999.45370593811
100000.91771395848
99998.46087828724
100002.57459415987
99995.71765056293
100007.04052763851
99988.66159771262
100017.44564642088
99975.39781564604
100026.38492322163
99997.47147964832
99871.42945450413
100577.73699017827
97855.73251993135
106790.30525943119
448169.6234963446
897657.0836693016
1.0378896082123661e6
1.038427376100326e6
1.0508208628988226e6
1.0603475526986348e6
1.0697735980690464e6
1.078557502154894e6
1.086858082593969e6
1.094645443868689e6
1.1019592123639695e6
1.1087649848763216e6
1.115124738678336e6
1.1209231257960775e6
1.1263405953912456e6
1.1310240159269827e6
1.1355591365427014e6
1.1388367922118104e6
1.1428235399280167e6
1.1438088757978766e6
1.1487360037170628e6
1.1441589755074976e6
1.1565861591949007e6
99999.99671983678
100000.00568516078
99999.9908471325
100000.01543326495
99999.97477855594
100000.04197696736
99999.9310574927
100000.11396975697
99999.81268172612
100000.30848559357
99999.49312254072
100000.83389136023
99998.62668392819
100002.27136647738
99996.2113181013
100006.41326272894
99988.83612334797
100020.18853070238
99960.97439792585
100080.30208489056
99816.84084370162
100437.40497917622
98849.0496895254
103092.1286517351
91509.74437658903
392813.684638364
855607.9605740617
1.0312978578936257e6
1.0338155008134318e6
1.045443154747274e6
1.0547151614985904e6
1.0637499127516926e6
1.0721372587979347e6
1.080004643745988e6
1.087328203557754e6
1.0941427960218803e6
1.1004122626316922e6
1.1061920598043452e6
1.1113618758029062e6
1.1160879728250653e6
1.1200059412059542e6
1.1236779888415467e6
1.1259704168016098e6
1.1288620953383965e6
1.1285551184490612e6
1.1323708467526701e6
1.1261543058816295e6
1.1391785546557922e6
99999.99656881686
100000.00582843692
99999.99063250897
100000.0155884448
99999.97474748969
100000.04149280592
99999.93274499274
100000.10947688333
99999.82316796629
100000.28560060571
99999.540761145
100000.73847400695
99998.81069296834
100001.93263720989
99996.79285915071
100005.53730105072
99989.75434684385
100020.72969146466
99953.0920307604
100115.44541531878
99691.28570429294
100850.92331317408
97582.9747261824
107154.02422938208
80776.30222835926
335216.9278995433
804438.6867564678
1.0212458417539082e6
1.0291320739330534e6
1.0395340272893021e6
1.048576898330232e6
1.0571675934508964e6
1.0651086138987392e6
1.0724830771572331e6
1.0792749791825083e6
1.0855142226135656e6
1.091164670274686e6
1.0962799123999355e6
1.100745387439975e6
1.1047316732474603e6
1.1078994552647872e6
1.110830195033192e6
1.1124532129647685e6
1.114781719173226e6
1.1140820733712607e6
1.1177648788947836e6
1.1112016974677194e6
1.1253350576744834e6
99999.99651569738
100000.00585740569
99999.99057434518
100000.01559202386
99999.97479919659
100000.04120094523
99999.93350467498
100000.10762394905
99999.82724068491
100000.27695696086
99999.55840125102
100000.70352290005
99998.8775039121
100001.81108856286
99996.9965007582
100005.25289375667
99989.95857848342
100021.41598835682
99948.57135349885
100133.97105245737
99627.89116344818
101060.91003826847
96958.31804315823
109210.45707958561
75657.81242677507
277446.1300304794
743489.8249260001
1.006111127246873e6
1.0244311514627718e6
1.0331161694677578e6
1.0419465758293683e6
1.050039439229266e6
1.0574774252092983e6
1.064289725311293e6
1.0704657537789764e6
1.07602477784349e6
1.0809209639585589e6
1.0851907395479393e6
1.0886973375592988e6
1.0915742647485388e6
1.0934284308457251e6
1.0947675968408647e6
1.0943866125363417e6
1.094255925639773e6
1.090282029681416e6
1.090598234087423e6
1.079035175252566e6
1.093073280772905e6
99999.99653364967
100000.00582808748
99999.99058021753
100000.0156171927
99999.97462293426
100000.04168107382
99999.93225414288
100000.11047004475
99999.8209470657
100000.29023280396
99999.5310119777
100000.7586454005
99998.76862487404
100002.02214665891
99996.59561068343
100005.99884802295
99988.61653112031
100023.75235333302
99944.86799209747
100139.31608209937
99623.96057120185
101055.31778491638
97024.08656164954
108943.62297737766
76389.14299728177
221885.44354321482
672693.0692022021
983904.2071934324
1.0196479440979655e6
1.0262629674890309e6
1.0348620479784244e6
1.0424099644467378e6
1.0492894880279691e6
1.055475636732282e6
1.0609608838312076e6
1.0657530617354272e6
1.0697973632376823e6
1.0731174079992052e6
1.0755691911357972e6
1.0772765713576498e6
1.0778648670103555e6
1.0778559864797546e6
1.0761656113783435e6
1.0747661859592656e6
1.0699972819263686e6
1.0694212249203227e6
1.057853831352573e6
1.0711357256485138e6
99999.99663685424
100000.00569756638
99999.99073088795
100000.0154887595
99999.97456503243
100000.04224322095
99999.9303365606
100000.11543161639
99999.80919715123
100000.31622273549
99999.47563315158
100000.87280314723
99998.53951451706
100002.46926496274
99995.75168005495
100007.52130123365
99986.07677433753
100027.39546464
99941.775063571
100133.8878983434
99668.82942069058
100869.06859020489
97663.2665099351
106754.31212620034
82138.02125064097
171185.86761412752
592788.1381953924
952300.4699450796
1.0144211189932823e6
1.0190883624193779e6
1.0273582032503365e6
1.0343215185560585e6
1.0405849831642455e6
1.0460796446867011e6
1.0507930402240627e6
1.054715034596475e6
1.0577691984105213e6
1.0599454464068192e6
1.0610508904536432e6
1.0611304319409581e6
1.0596781309203405e6
1.057009256391398e6
1.0516447668510282e6
1.0451289694548583e6
1.0324696791032861e6
1.0218590374231578e6
992517.1733735624
999001.1578345138
99999.99686506254
100000.00535779375
99999.99122268299
100000.01479415438
99999.97543012335
100000.04129232759
99999.93086755299
100000.1164471169
99999.80371842586
100000.33237377602
99999.43539263924
100000.96413938118
99998.34412166233
100002.86664252421
99994.98506564522
100008.90106819806
99983.87702272175
100030.02251957102
99941.94495840919
100117.61140942428
99748.10511994628
100572.90717685639
98630.26132038402
103538.7913552214
91018.35966034191
128395.08474000859
505598.7783206301
908708.3215298932
1.0078240081148822e6
1.0117335705915916e6
1.0194649066414147e6
1.0258209558208735e6
1.0314174044274922e6
1.036166078508579e6
1.0400419362270933e6
1.0430152770548016e6
1.0449870643491282e6
1.0459146351237505e6
1.0455699910343905e6
1.0439436231440674e6
1.0405036141161128e6
1.0354878956084249e6
1.0275635395217992e6
1.0180802823473435e6
1.0033331844889441e6
988483.6409379372
960361.79697446
927329.9506582894
99999.99725362817
100000.00470565098
99999.99224556178
100000.01312560352
99999.9780288802
100000.0371931385
99999.93709999428
100000.10707313885
99999.81721299536
100000.31377761911
99999.45891001531
100000.93833979082
99998.36401593665
100002.86857163862
99994.9431922765
100008.95730641708
99984.07547964118
100028.34402035121
99949.66559019464
100088.4186798435
99847.86242851293
100247.85577455335
99635.0613923902
100376.90557692357
100221.81229170985
96855.96318447197
414397.6884932085
850532.7016775509
998039.7963123893
1.0043150220082867e6
1.0111988648952278e6
1.0169494145338018e6
1.02184006167086e6
1.0257996081014595e6
1.0287823598910057e6
1.0307355796772048e6
1.0315288516676367e6
1.0310716864702569e6
1.0290675100982328e6
1.0253877631734074e6
1.0193171780676346e6
1.0107023115062591e6
997553.8224708021
979624.105381451
950196.2130727001
907395.0225349404
822020.0514055609
670783.3334483844
99999.99780277959
100000.0037175178
99999.99385167808
100000.01034555485
99999.98267172487
100000.02925788869
99999.95051180922
100000.08419545603
99999.85616042613
100000.24711667853
99999.57330976106
100000.7407031483
99998.70836455777
100002.26014721135
99996.04114768452
100006.91190602272
99988.06101997827
100020.10912852106
99967.8684508417
100045.25114354103
99956.55776861346
99959.24176037924
100426.59445919802
98144.31217259151
106756.6587958824
79204.43711317806
324030.62262343755
775962.2833593119
982216.063375421
996863.1246373382
1.002586466987954e6
1.007753694690248e6
1.0119178011831403e6
1.0150617808658028e6
1.0171171616436845e6
1.0180083254020893e6
1.0175739059843295e6
1.0156735674552401e6
1.0119504782704774e6
1.0061674127084512e6
997471.9998918802
985446.4409272062
967809.4964163979
943632.2171940076
905973.0978650358
851444.1036161318
756455.3443027681
600950.646752675
99999.99846160218
100000.00249040825
99999.99588127069
100000.0067400585
99999.988867525
100000.01835014245
99999.9696007967
100000.05044106973
99999.91598395223
100000.14035815994
99999.76476928509
100000.39514691186
99999.33586719095
100001.11285260267
99998.15390273216
100002.99011708415
99995.40542206433
100006.2141054142
99994.47103226278
99993.60022438972
100058.63591350072
99753.87830643651
100852.94855944677
97261.20919701009
108750.84453110468
75516.90047887582
240180.74942342498
685054.5510583288
956727.3213894148
989262.5343668623
993723.3318806386
998308.0274690028
1.00173483607654e6
1.0040488346659037e6
1.0051609690180444e6
1.0049754128406541e6
1.0032992726103911e6
999953.0212016797
994523.6044644375
986692.889013702
975513.0864098
960418.980857128
939023.5604539339
910265.8777266964
867592.611074068
808756.139160209
714818.020409454
582256.7561939154
99999.99913612162
100000.00122504073
99999.99799053118
100000.00296692747
99999.99541260878
100000.00672910054
99999.99014682126
100000.01374798143
99999.98171964345
100000.02180072315
99999.97964598428
100000.00353312505
100000.05291747776
99999.79459294573
100000.58371417513
99998.50967998391
100003.64070005163
99991.21778978004
100021.25574067235
99947.64814267849
100131.43721115508
99660.72441604815
100894.58955930246
97604.49613642828
106739.25864899329
82393.76830486197
168409.94208625518
580129.1794258121
917426.3383560845
980954.5338977681
984788.6494883257
988711.7971191023
991390.7623553725
992868.7503035335
993040.146077632
991790.0994934365
988901.3826764425
984163.5468274679
977127.3590164016
967429.49826962
954080.5289466839
936490.2422299439
912304.7448829241
880708.0829636285
835692.9893346137
776953.1858622414
688699.9024474097
578237.6752108189
99999.9997191362
100000.00015507345
99999.99977527889
99999.99980851657
100000.00085838734
99999.99714404007
100000.0069535186
99999.98400433389
100000.03450209791
99999.92755837717
100000.14862321789
99999.69915204245
100000.60299429328
99998.79862994277
100002.3852376201
99995.26931430132
100009.39031720192
99981.30426300992
100037.38654913018
99924.71287623365
100152.67507239706
99687.13002317311
100646.43148477038
98653.44081325385
102876.10479836194
94117.34313234512
114420.68282140822
466011.354063904
859628.99880288
970141.6635872399
975911.9127715328
979036.0046079608
980969.3153581861
981621.1975552328
980875.4966898815
978599.2865068675
974561.4505326948
968531.3702024781
960043.8209575954
948724.1980222875
933589.8969231982
914105.8156427424
888054.7002521701
854983.6017775009
809583.8034327503
753015.2444438185
672514.4000407864
579094.8154279848
100000.00012810908
99999.9994561507
100000.0009313451
99999.99784870123
100000.00412928715
99999.99162446432
100000.01620636674
99999.96843154302
100000.06062122276
99999.88376073583
100000.2217521103
99999.57768709926
100000.80265010972
99998.47617748458
100002.8892252225
99994.53106782536
100010.32033813864
99980.63163965833
100035.9699469281
99934.43362815917
100115.25824572046
99810.92934685391
100261.68517052202
99805.76358226423
99404.26983540393
104226.2035975028
83281.66336265135
350839.8337652852
779272.7094527286
953053.2823253222
966982.0189593814
969296.3545940311
970524.8841550258
970388.9843928149