# vtk DataFile Version 2.0
JuliaCFD
ASCII
DATASET UNSTRUCTURED_GRID

POINTS 32898 float
0.0 0.0 -0.05
0.0125 0.0 -0.05
0.025 0.0 -0.05
0.0375 0.0 -0.05
0.05 0.0 -0.05
0.0625 0.0 -0.05
0.075 0.0 -0.05
0.0875 0.0 -0.05
0.1 0.0 -0.05
0.1125 0.0 -0.05
0.125 0.0 -0.05
0.1375 0.0 -0.05
0.15 0.0 -0.05
0.1625 0.0 -0.05
0.175 0.0 -0.05
0.1875 0.0 -0.05
0.2 0.0 -0.05
0.2125 0.0 -0.05
0.225 0.0 -0.05
0.2375 0.0 -0.05
0.25 0.0 -0.05
0.2625 0.0 -0.05
0.275 0.0 -0.05
0.2875 0.0 -0.05
0.3 0.0 -0.05
0.3125 0.0 -0.05
0.325 0.0 -0.05
0.3375 0.0 -0.05
0.35 0.0 -0.05
0.3625 0.0 -0.05
0.375 0.0 -0.05
0.3875 0.0 -0.05
0.4 0.0 -0.05
0.4125 0.0 -0.05
0.425 0.0 -0.05
0.4375 0.0 -0.05
0.45 0.0 -0.05
0.4625 0.0 -0.05
0.475 0.0 -0.05
0.4875 0.0 -0.05
0.5 0.0 -0.05
0.5125 0.0 -0.05
0.525 0.0 -0.05
0.5375 0.0 -0.05
0.55 0.0 -0.05
0.5625 0.0 -0.05
0.575 0.0 -0.05
0.5875 0.0 -0.05
0.6 0.0 -0.05
0.0 0.0125 -0.05
0.0125 0.0125 -0.05
0.025 0.0125 -0.05
0.0375 0.0125 -0.05
0.05 0.0125 -0.05
0.0625 0.0125 -0.05
0.075 0.0125 -0.05
0.0875 0.0125 -0.05
0.1 0.0125 -0.05
0.1125 0.0125 -0.05
0.125 0.0125 -0.05
0.1375 0.0125 -0.05
0.15 0.0125 -0.05
0.1625 0.0125 -0.05
0.175 0.0125 -0.05
0.1875 0.0125 -0.05
0.2 0.0125 -0.05
0.2125 0.0125 -0.05
0.225 0.0125 -0.05
0.2375 0.0125 -0.05
0.25 0.0125 -0.05
0.2625 0.0125 -0.05
0.275 0.0125 -0.05
0.2875 0.0125 -0.05
0.3 0.0125 -0.05
0.3125 0.0125 -0.05
0.325 0.0125 -0.05
0.3375 0.0125 -0.05
0.35 0.0125 -0.05
0.3625 0.0125 -0.05
0.375 0.0125 -0.05
0.3875 0.0125 -0.05
0.4 0.0125 -0.05
0.4125 0.0125 -0.05
0.425 0.0125 -0.05
0.4375 0.0125 -0.05
0.45 0.0125 -0.05
0.4625 0.0125 -0.05
0.475 0.0125 -0.05
0.4875 0.0125 -0.05
0.5 0.0125 -0.05
0.5125 0.0125 -0.05
0.525 0.0125 -0.05
0.5375 0.0125 -0.05
0.55 0.0125 -0.05
0.5625 0.0125 -0.05
0.575 0.0125 -0.05
0.5875 0.0125 -0.05
0.6 0.0125 -0.05
0.0 0.025 -0.05
0.0125 0.025 -0.05
0.025 0.025 -0.05
0.0375 0.025 -0.05
0.05 0.025 -0.05
0.0625 0.025 -0.05
0.075 0.025 -0.05
0.0875 0.025 -0.05
0.1 0.025 -0.05
0.1125 0.025 -0.05
0.125 0.025 -0.05
0.1375 0.025 -0.05
0.15 0.025 -0.05
0.1625 0.025 -0.05
0.175 0.025 -0.05
0.1875 0.025 -0.05
0.2 0.025 -0.05
0.2125 0.025 -0.05
0.225 0.025 -0.05
0.2375 0.025 -0.05
0.25 0.025 -0.05
0.2625 0.025 -0.05
0.275 0.025 -0.05
0.2875 0.025 -0.05
0.3 0.025 -0.05
0.3125 0.025 -0.05
0.325 0.025 -0.05
0.3375 0.025 -0.05
0.35 0.025 -0.05
0.3625 0.025 -0.05
0.375 0.025 -0.05
0.3875 0.025 -0.05
0.4 0.025 -0.05
0.4125 0.025 -0.05
0.425 0.025 -0.05
0.4375 0.025 -0.05
0.45 0.025 -0.05
0.4625 0.025 -0.05
0.475 0.025 -0.05
0.4875 0.025 -0.05
0.5 0.025 -0.05
0.5125 0.025 -0.05
0.525 0.025 -0.05
0.5375 0.025 -0.05
0.55 0.025 -0.05
0.5625 0.025 -0.05
0.575 0.025 -0.05
0.5875 0.025 -0.05
0.6 0.025 -0.05
0.0 0.0375 -0.05
0.0125 0.0375 -0.05
0.025 0.0375 -0.05
0.0375 0.0375 -0.05
0.05 0.0375 -0.05
0.0625 0.0375 -0.05
0.075 0.0375 -0.05
0.0875 0.0375 -0.05
0.1 0.0375 -0.05
0.1125 0.0375 -0.05
0.125 0.0375 -0.05
0.1375 0.0375 -0.05
0.15 0.0375 -0.05
0.1625 0.0375 -0.05
0.175 0.0375 -0.05
0.1875 0.0375 -0.05
0.2 0.0375 -0.05
0.2125 0.0375 -0.05
0.225 0.0375 -0.05
0.2375 0.0375 -0.05
0.25 0.0375 -0.05
0.2625 0.0375 -0.05
0.275 0.0375 -0.05
0.2875 0.0375 -0.05
0.3 0.0375 -0.05
0.3125 0.0375 -0.05
0.325 0.0375 -0.05
0.3375 0.0375 -0.05
0.35 0.0375 -0.05
0.3625 0.0375 -0.05
0.375 0.0375 -0.05
0.3875 0.0375 -0.05
0.4 0.0375 -0.05
0.4125 0.0375 -0.05
0.425 0.0375 -0.05
0.4375 0.0375 -0.05
0.45 0.0375 -0.05
0.4625 0.0375 -0.05
0.475 0.0375 -0.05
0.4875 0.0375 -0.05
0.5 0.0375 -0.05
0.5125 0.0375 -0.05
0.525 0.0375 -0.05
0.5375 0.0375 -0.05
0.55 0.0375 -0.05
0.5625 0.0375 -0.05
0.575 0.0375 -0.05
0.5875 0.0375 -0.05
0.6 0.0375 -0.05
0.0 0.05 -0.05
0.0125 0.05 -0.05
0.025 0.05 -0.05
0.0375 0.05 -0.05
0.05 0.05 -0.05
0.0625 0.05 -0.05
0.075 0.05 -0.05
0.0875 0.05 -0.05
0.1 0.05 -0.05
0.1125 0.05 -0.05
0.125 0.05 -0.05
0.1375 0.05 -0.05
0.15 0.05 -0.05
0.1625 0.05 -0.05
0.175 0.05 -0.05
0.1875 0.05 -0.05
0.2 0.05 -0.05
0.2125 0.05 -0.05
0.225 0.05 -0.05
0.2375 0.05 -0.05
0.25 0.05 -0.05
0.2625 0.05 -0.05
0.275 0.05 -0.05
0.2875 0.05 -0.05
0.3 0.05 -0.05
0.3125 0.05 -0.05
0.325 0.05 -0.05
0.3375 0.05 -0.05
0.35 0.05 -0.05
0.3625 0.05 -0.05
0.375 0.05 -0.05
0.3875 0.05 -0.05
0.4 0.05 -0.05
0.4125 0.05 -0.05
0.425 0.05 -0.05
0.4375 0.05 -0.05
0.45 0.05 -0.05
0.4625 0.05 -0.05
0.475 0.05 -0.05
0.4875 0.05 -0.05
0.5 0.05 -0.05
0.5125 0.05 -0.05
0.525 0.05 -0.05
0.5375 0.05 -0.05
0.55 0.05 -0.05
0.5625 0.05 -0.05
0.575 0.05 -0.05
0.5875 0.05 -0.05
0.6 0.05 -0.05
0.0 0.0625 -0.05
0.0125 0.0625 -0.05
0.025 0.0625 -0.05
0.0375 0.0625 -0.05
0.05 0.0625 -0.05
0.0625 0.0625 -0.05
0.075 0.0625 -0.05
0.0875 0.0625 -0.05
0.1 0.0625 -0.05
0.1125 0.0625 -0.05
0.125 0.0625 -0.05
0.1375 0.0625 -0.05
0.15 0.0625 -0.05
0.1625 0.0625 -0.05
0.175 0.0625 -0.05
0.1875 0.0625 -0.05
0.2 0.0625 -0.05
0.2125 0.0625 -0.05
0.225 0.0625 -0.05
0.2375 0.0625 -0.05
0.25 0.0625 -0.05
0.2625 0.0625 -0.05
0.275 0.0625 -0.05
0.2875 0.0625 -0.05
0.3 0.0625 -0.05
0.3125 0.0625 -0.05
0.325 0.0625 -0.05
0.3375 0.0625 -0.05
0.35 0.0625 -0.05
0.3625 0.0625 -0.05
0.375 0.0625 -0.05
0.3875 0.0625 -0.05
0.4 0.0625 -0.05
0.4125 0.0625 -0.05
0.425 0.0625 -0.05
0.4375 0.0625 -0.05
0.45 0.0625 -0.05
0.4625 0.0625 -0.05
0.475 0.0625 -0.05
0.4875 0.0625 -0.05
0.5 0.0625 -0.05
0.5125 0.0625 -0.05
0.525 0.0625 -0.05
0.5375 0.0625 -0.05
0.55 0.0625 -0.05
0.5625 0.0625 -0.05
0.575 0.0625 -0.05
0.5875 0.0625 -0.05
0.6 0.0625 -0.05
0.0 0.075 -0.05
0.0125 0.075 -0.05
0.025 0.075 -0.05
0.0375 0.075 -0.05
0.05 0.075 -0.05
0.0625 0.075 -0.05
0.075 0.075 -0.05
0.0875 0.075 -0.05
0.1 0.075 -0.05
0.1125 0.075 -0.05
0.125 0.075 -0.05
0.1375 0.075 -0.05
0.15 0.075 -0.05
0.1625 0.075 -0.05
0.175 0.075 -0.05
0.1875 0.075 -0.05
0.2 0.075 -0.05
0.2125 0.075 -0.05
0.225 0.075 -0.05
0.2375 0.075 -0.05
0.25 0.075 -0.05
0.2625 0.075 -0.05
0.275 0.075 -0.05
0.2875 0.075 -0.05
0.3 0.075 -0.05
0.3125 0.075 -0.05
0.325 0.075 -0.05
0.3375 0.075 -0.05
0.35 0.075 -0.05
0.3625 0.075 -0.05
0.375 0.075 -0.05
0.3875 0.075 -0.05
0.4 0.075 -0.05
0.4125 0.075 -0.05
0.425 0.075 -0.05
0.4375 0.075 -0.05
0.45 0.075 -0.05
0.4625 0.075 -0.05
0.475 0.075 -0.05
0.4875 0.075 -0.05
0.5 0.075 -0.05
0.5125 0.075 -0.05
0.525 0.075 -0.05
0.5375 0.075 -0.05
0.55 0.075 -0.05
0.5625 0.075 -0.05
0.575 0.075 -0.05
0.5875 0.075 -0.05
0.6 0.075 -0.05
0.0 0.0875 -0.05
0.0125 0.0875 -0.05
0.025 0.0875 -0.05
0.0375 0.0875 -0.05
0.05 0.0875 -0.05
0.0625 0.0875 -0.05
0.075 0.0875 -0.05
0.0875 0.0875 -0.05
0.1 0.0875 -0.05
0.1125 0.0875 -0.05
0.125 0.0875 -0.05
0.1375 0.0875 -0.05
0.15 0.0875 -0.05
0.1625 0.0875 -0.05
0.175 0.0875 -0.05
0.1875 0.0875 -0.05
0.2 0.0875 -0.05
0.2125 0.0875 -0.05
0.225 0.0875 -0.05
0.2375 0.0875 -0.05
0.25 0.0875 -0.05
0.2625 0.0875 -0.05
0.275 0.0875 -0.05
0.2875 0.0875 -0.05
0.3 0.0875 -0.05
0.3125 0.0875 -0.05
0.325 0.0875 -0.05
0.3375 0.0875 -0.05
0.35 0.0875 -0.05
0.3625 0.0875 -0.05
0.375 0.0875 -0.05
0.3875 0.0875 -0.05
0.4 0.0875 -0.05
0.4125 0.0875 -0.05
0.425 0.0875 -0.05
0.4375 0.0875 -0.05
0.45 0.0875 -0.05
0.4625 0.0875 -0.05
0.475 0.0875 -0.05
0.4875 0.0875 -0.05
0.5 0.0875 -0.05
0.5125 0.0875 -0.05
0.525 0.0875 -0.05
0.5375 0.0875 -0.05
0.55 0.0875 -0.05
0.5625 0.0875 -0.05
0.575 0.0875 -0.05
0.5875 0.0875 -0.05
0.6 0.0875 -0.05
0.0 0.1 -0.05
0.0125 0.1 -0.05
0.025 0.1 -0.05
0.0375 0.1 -0.05
0.05 0.1 -0.05
0.0625 0.1 -0.05
0.075 0.1 -0.05
0.0875 0.1 -0.05
0.1 0.1 -0.05
0.1125 0.1 -0.05
0.125 0.1 -0.05
0.1375 0.1 -0.05
0.15 0.1 -0.05
0.1625 0.1 -0.05
0.175 0.1 -0.05
0.1875 0.1 -0.05
0.2 0.1 -0.05
0.2125 0.1 -0.05
0.225 0.1 -0.05
0.2375 0.1 -0.05
0.25 0.1 -0.05
0.2625 0.1 -0.05
0.275 0.1 -0.05
0.2875 0.1 -0.05
0.3 0.1 -0.05
0.3125 0.1 -0.05
0.325 0.1 -0.05
0.3375 0.1 -0.05
0.35 0.1 -0.05
0.3625 0.1 -0.05
0.375 0.1 -0.05
0.3875 0.1 -0.05
0.4 0.1 -0.05
0.4125 0.1 -0.05
0.425 0.1 -0.05
0.4375 0.1 -0.05
0.45 0.1 -0.05
0.4625 0.1 -0.05
0.475 0.1 -0.05
0.4875 0.1 -0.05
0.5 0.1 -0.05
0.5125 0.1 -0.05
0.525 0.1 -0.05
0.5375 0.1 -0.05
0.55 0.1 -0.05
0.5625 0.1 -0.05
0.575 0.1 -0.05
0.5875 0.1 -0.05
0.6 0.1 -0.05
0.0 0.1125 -0.05
0.0125 0.1125 -0.05
0.025 0.1125 -0.05
0.0375 0.1125 -0.05
0.05 0.1125 -0.05
0.0625 0.1125 -0.05
0.075 0.1125 -0.05
0.0875 0.1125 -0.05
0.1 0.1125 -0.05
0.1125 0.1125 -0.05
0.125 0.1125 -0.05
0.1375 0.1125 -0.05
0.15 0.1125 -0.05
0.1625 0.1125 -0.05
0.175 0.1125 -0.05
0.1875 0.1125 -0.05
0.2 0.1125 -0.05
0.2125 0.1125 -0.05
0.225 0.1125 -0.05
0.2375 0.1125 -0.05
0.25 0.1125 -0.05
0.2625 0.1125 -0.05
0.275 0.1125 -0.05
0.2875 0.1125 -0.05
0.3 0.1125 -0.05
0.3125 0.1125 -0.05
0.325 0.1125 -0.05
0.3375 0.1125 -0.05
0.35 0.1125 -0.05
0.3625 0.1125 -0.05
0.375 0.1125 -0.05
0.3875 0.1125 -0.05
0.4 0.1125 -0.05
0.4125 0.1125 -0.05
0.425 0.1125 -0.05
0.4375 0.1125 -0.05
0.45 0.1125 -0.05
0.4625 0.1125 -0.05
0.475 0.1125 -0.05
0.4875 0.1125 -0.05
0.5 0.1125 -0.05
0.5125 0.1125 -0.05
0.525 0.1125 -0.05
0.5375 0.1125 -0.05
0.55 0.1125 -0.05
0.5625 0.1125 -0.05
0.575 0.1125 -0.05
0.5875 0.1125 -0.05
0.6 0.1125 -0.05
0.0 0.125 -0.05
0.0125 0.125 -0.05
0.025 0.125 -0.05
0.0375 0.125 -0.05
0.05 0.125 -0.05
0.0625 0.125 -0.05
0.075 0.125 -0.05
0.0875 0.125 -0.05
0.1 0.125 -0.05
0.1125 0.125 -0.05
0.125 0.125 -0.05
0.1375 0.125 -0.05
0.15 0.125 -0.05
0.1625 0.125 -0.05
0.175 0.125 -0.05
0.1875 0.125 -0.05
0.2 0.125 -0.05
0.2125 0.125 -0.05
0.225 0.125 -0.05
0.2375 0.125 -0.05
0.25 0.125 -0.05
0.2625 0.125 -0.05
0.275 0.125 -0.05
0.2875 0.125 -0.05
0.3 0.125 -0.05
0.3125 0.125 -0.05
0.325 0.125 -0.05
0.3375 0.125 -0.05
0.35 0.125 -0.05
0.3625 0.125 -0.05
0.375 0.125 -0.05
0.3875 0.125 -0.05
0.4 0.125 -0.05
0.4125 0.125 -0.05
0.425 0.125 -0.05
0.4375 0.125 -0.05
0.45 0.125 -0.05
0.4625 0.125 -0.05
0.475 0.125 -0.05
0.4875 0.125 -0.05
0.5 0.125 -0.05
0.5125 0.125 -0.05
0.525 0.125 -0.05
0.5375 0.125 -0.05
0.55 0.125 -0.05
0.5625 0.125 -0.05
0.575 0.125 -0.05
0.5875 0.125 -0.05
0.6 0.125 -0.05
0.0 0.1375 -0.05
0.0125 0.1375 -0.05
0.025 0.1375 -0.05
0.0375 0.1375 -0.05
0.05 0.1375 -0.05
0.0625 0.1375 -0.05
0.075 0.1375 -0.05
0.0875 0.1375 -0.05
[...]
CELL_DATA 16128
SCALARS P float 1
LOOKUP_TABLE default
100000.00674026053
99999.98805506172
100000.01938200701
99999.96675488248
100000.0551644867
99999.9065070589
100000.15670683995
99999.73508454372
100000.44693380196
99999.24185191715
100001.29048381142
99997.78521559064
100003.84344155787
99993.20637388088
100012.32825677669
99976.73135262728
100046.16173173765
99902.44153781979
100220.04443585988
99472.19974647126
101347.49818052258
96521.23784802023
109982.79440259514
75321.77910316596
240282.66815700548
706502.2699160423
1.026749354219024e6
1.0493201679812488e6
1.058908343618561e6
1.0710356701906559e6
1.0820564752728902e6
1.0928480057862336e6
1.103146095676269e6
1.113029383282365e6
1.122457768376695e6
1.1314576065843403e6
1.1399709581022928e6
1.1480547336668293e6
1.1555531273057042e6
1.1626576107540184e6
1.1689383893801395e6
1.175028932456381e6
1.179695289726855e6
1.1849543978228634e6
1.18713229835647e6
1.1925260520657236e6
1.1899597060892526e6
1.1989209490187843e6
100000.00674050266
99999.98813872409
100000.01937650227
99999.96682816662
100000.05524615975
99999.90633441124
100000.15736819939
99999.73365301552
100000.45010044028
99999.2356461698
100001.30217938332
99997.76468194737
100003.87700789953
99993.15774827596
100012.38410293273
99976.71194153873
100046.01330175267
99903.14225574813
100217.91033522435
99478.04618778336
101333.31009525458
96553.98603339984
109907.59844451382
75433.33735685554
237641.141964917
704164.0520937941
1.0292249794618664e6
1.0539860453961352e6
1.0639497696119244e6
1.0764533332779384e6
1.0876335336778963e6
1.0985382718704662e6
1.1089233807770922e6
1.1188923730544306e6
1.1284118880639528e6
1.1375110707922815e6
1.1461312290153645e6
1.1543274182769703e6
1.1619403876500584e6
1.1691585261364607e6
1.1755461683078096e6
1.1817345553502298e6
1.1864786636517178e6
1.191801725160178e6
1.193999731867714e6
1.199421390573331e6
1.1967663700878148e6
1.2058268133647344e6
100000.00575339381
99999.98993915298
100000.01641284497
99999.97203190056
100000.04644550542
99999.92157468821
100000.13129748034
99999.7786308073
100000.37275850141
99999.36907218002
100001.0720931217
99998.16207524553
100003.19040995042
99994.3454799023
100010.3286678333
99980.27590877157
100039.83171990195
99913.91472204318
100199.10655096134
99511.19170705885
101273.7829471952
96659.68712219172
109690.09498421034
75731.23497566309
229858.68315194076
692314.9720893158
1.023197467637046e6
1.0509426032509955e6
1.0599814079104082e6
1.0723439786381254e6
1.0832937823374642e6
1.094027193337317e6
1.1042438543458336e6
1.1140467872596288e6
1.1233961534397462e6
1.1323201715110682e6
1.1407614508424941e6
1.1487760579261929e6
1.1562094780666216e6
1.1632505015566186e6
1.1694726842585877e6
1.1755034278338605e6
1.1801151652568963e6
1.1853182854824062e6
1.1874328923028617e6
1.19280309252785e6
1.1900697211042915e6
1.1992864069315363e6
100000.00440566237
99999.99240694774
100000.01236398655
99999.97913358596
100000.03445562454
99999.94229425855
100000.0959244861
99999.8394991477
100000.26837489265
99999.54857496859
100000.76362375657
99998.69282261815
100002.27702572176
99995.9195156883
100007.6132649786
99984.97721599166
100031.66416719549
99928.2544750618
100173.64997215116
99557.5151319564
101185.92660950235
96828.78238055397
109299.95759509587
76384.85619903299
218514.77386983222
676020.7910409856
1.0177923515122989e6
1.0511852970090848e6
1.0594920473760408e6
1.0721341461655134e6
1.083097494127623e6
1.0938578195440324e6
1.1040718652823286e6
1.1138660475915344e6
1.1232046758503634e6
1.1321212216742213e6
1.1405619840658854e6
1.1485842219531676e6
1.1560365904110067e6
1.1631056177954918e6
1.1693692093169917e6
1.175446667265421e6
1.1801168132531373e6
1.185376608523063e6
1.1875405891469507e6
1.1929812836396776e6
1.1901857647077285e6
1.1996547849676951e6
100000.00285550508
99999.99523619396
100000.00773321513
99999.98722977418
100000.0208207584
99999.96578637947
100000.05591952274
99999.90815664451
100000.15090337621
99999.75017017924
100000.41771379976
99999.28753646341
100001.25308524862
99997.6881858675
100004.54591511324
99990.33980521002
100022.19137762996
99945.32928545507
100142.08662845613
99618.26568024431
101061.64865897679
97089.47003060533
108642.30600614879
77640.21777958266
203683.1690066689
653204.6434515065
1.0086149991116164e6
1.0497628489873284e6
1.0566555086738067e6
1.0693165313373648e6
1.0800370138917926e6
1.0906147462541228e6
1.1006357292636405e6
1.110238791026503e6
1.1193842112548293e6
1.128105835691602e6
1.1363515779856464e6
1.144178699363261e6
1.1514403101630965e6
1.1583208399079468e6
1.16440726291368e6
1.1703108670409396e6
1.174827589327416e6
1.1799400531210646e6
1.1819761042747432e6
1.1873417861715732e6
1.1843679327332897e6
1.1940982858487498e6
100000.00128138222
99999.99808379561
100000.00308415563
99999.99530981718
100000.00726705683
99999.98902803069
100000.0164999797
99999.97554991784
100000.0359648955
99999.94693453347
100000.08054740618
99999.86735956844
100000.25223516957
99999.42714694356
100001.49739121305
99995.76429319322
100012.3421207468
99963.79856781125
100106.01839369474
99692.49537711791
100897.46762125932
97460.35036340669
107646.91560291509
79725.05525919603
186176.60771314192
624498.8865337255
996661.210485997
1.0487393607396889e6
1.0541138244787469e6
1.0669492251721085e6
1.0775188344084108e6
1.087991215349039e6
1.0978835249915207e6
1.1073529397692492e6
1.1163607357235984e6
1.1249446676729403e6
1.1330572283994271e6
1.1407577335239141e6
1.1479057260004885e6
1.154684625281448e6
1.160691582748118e6
1.1665295959700816e6
1.1710093079202673e6
1.1760978648538927e6
1.1781197196048428e6
1.1835296669239763e6
1.1804279188562913e6
1.1905343737279088e6
99999.99984333148
100000.00064337142
99999.99891936475
100000.00247277721
99999.99533395116
100000.00931766113
99999.98234536161
100000.03351474514
99999.93775659984
100000.11414348481
99999.79512304963
100000.35756871519
99999.40401999162
100000.91253911992
99998.85194015167
100000.59738324283
100003.20404279948
99981.90638982857
100068.06864283848
99776.84003258083
100695.72941508013
97947.67103115316
106279.04401295853
82823.97531930466
166729.56958820723
589597.8631177831
980561.4555158764
1.047114947939837e6
1.0507173861361789e6
1.0636122859341886e6
1.073923134364156e6
1.0841826502627924e6
1.0938438584594976e6
1.1030762346025214e6
1.1118401980938013e6
1.1201745811143762e6
1.1280345423049387e6
1.1354793339090606e6
1.1423733184018072e6
1.1488966871071812e6
1.1546556837898998e6
1.16024368561861e6
1.1644877074443703e6
1.1693454863200495e6
1.1711431019700528e6
1.1764219305062091e6
1.1730131548140189e6
1.1835144265390977e6
99999.99865637167
100000.00269770605
99999.99559435966
100000.00808554076
99999.9861025514
100000.0247581306
99999.95675513026
100000.07625449027
99999.8664710202
100000.233772326
99999.59342986686
100000.70112340411
99998.81055689875
100001.96079415442
99996.9404877967
100004.24092975512
99995.85676543327
99997.7061375408
100031.7082810467
99865.16044395277
100467.49487919308
98536.6173300934
104570.58762607099
86988.18412012441
146337.86948097852
548713.5371669782
959685.2999796944
1.0450801145292642e6
1.047012037141792e6
1.059931218921734e6
1.0699992872449204e6
1.0800400671405431e6
1.0894642143462752e6
1.0984484869034085e6
1.1069552420721408e6
1.115025366516851e6
1.122618750739996e6
1.1297970645474666e6
1.1364331399126842e6
1.1427085661751246e6
1.1482447306713965e6
1.153631655127999e6
1.1577179106813772e6
1.1624546935521495e6
1.1641584864413273e6
1.1694589879410937e6
1.1658357034963e6
1.1768919145019585e6
99999.99777430441
100000.00415241302
99999.99326089877
100000.01189041194
99999.98000257378
100000.03461512615
99999.94098989262
100000.10156283158
99999.82602484275
100000.29872871585
99999.48854951146
100000.87340664538
99998.51907706377
100002.47954700635
99995.94721003312
100006.3206545732
99991.07760471743
100009.54766686312
100000.54485234161
99949.4545529335
100231.01111154867
99188.01461652502
102635.86963298186
92058.50586502606
126163.23958811148
502148.148930832
932922.9154002459
1.0421605373164604e6
1.0428542316792478e6
1.0556261597733323e6
1.0654176336403207e6
1.0751707777339066e6
1.0842924577385804e6
1.092956269826358e6
1.101127144345963e6
1.1088452457777997e6
1.1160723741439157e6
1.1228685972292968e6
1.1291094825183437e6
1.134971021620866e6
1.1400795486172778e6
1.1450138529509548e6
1.1486311005991066e6
1.1528857330316838e6
1.1540738948274252e6
1.1590087870788265e6
1.154742498195131e6
1.1663370618552503e6
99999.99718863721
100000.00504047959
99999.99185797607
100000.01402613112
99999.97676525639
100000.03942135152
99999.93404234415
100000.11131928182
99999.81299700445
100000.3150996314
99999.46995187525
100000.89196028754
99998.50200344124
100002.50790655248
99995.82917088016
100006.84427861025
99989.03501856864
100016.66595972235
99977.19960899027
100021.90019995802
100009.40889090479
99838.97642122857
100669.9416750122
97598.18548774603
107570.64466129876
450589.7434769285
899198.3316952757
1.0378784821065617e6
1.0384243736894412e6
1.050810541010304e6
1.060335086742822e6
1.069757877432106e6
1.0785394111911356e6
1.0868377827938087e6
1.094623286411754e6
1.1019354293694883e6
1.1087398062134692e6
1.1150983528632936e6
1.1208957044552856e6
1.1263122797877956e6
1.1309949417416954e6
1.1355293966576846e6
1.1388065089514372e6
1.142792735110173e6
1.1437777152719274e6
1.1487043899339233e6
1.1441273005331852e6
1.1565539927818961e6
99999.99684371297
100000.005492974
99999.99115980188
100000.01494130486
99999.9755672678
100000.04073149049
99999.93303625505
100000.1108501806
99999.81760368474
100000.30075409885
99999.50526571709
100000.8148220886
99998.65680789843
100002.22311500157
99996.29102754277
100006.27432053747
99989.09980410559
100019.63410129152
99962.27413709674
100077.00145402762
99825.74687305275
100412.5953462499
98918.79668208645
102886.06868255511
92058.20570756112
395141.08090931876
857365.7333885352
1.0313755187046331e6
1.0337991451582032e6
1.0454357444125997e6
1.0547025393161918e6
1.063734557633145e6
1.072119382528781e6
1.0799845989753497e6
1.0873063145322734e6
1.0941193156589412e6
1.1003874220094136e6
1.1061660509435993e6
1.1113348701148618e6
1.1160601112969972e6
1.1199773580742525e6
1.1236487765634656e6
1.1259406968191734e6
1.1288318899222242e6
1.1285245932097293e6
1.1323398758649405e6
1.126123287380969e6
1.1391470302179218e6
99999.99666431031
100000.0056812193
99999.99087305192
100000.01521093387
99999.97535490405
100000.0405331364
99999.93427616669
100000.10705482514
99999.82701190497
100000.27952537937
99999.55037731687
100000.72325399172
99998.8349131821
100001.89368932562
99996.85695377452
100005.42747088533
99989.95543611764
100020.32733581471
99953.98297777023
100113.27961143978
99696.90056417807
100835.4401011323
97625.03389183548
107025.70177426771
81083.51800454338
337399.74547253444
806415.589621128
1.0214527554749727e6
1.0290996112529414e6
1.039529625678055e6
1.048564002405119e6
1.0571524795586485e6
1.0650908581581654e6
1.0724632074349646e6
1.079253298335754e6
1.0854910022094143e6
1.091140143358273e6
1.0962542743124568e6
1.1007188087414932e6
1.1047042929510244e6
1.1078714019553468e6
1.1108015539621199e6
1.1124240973824202e6
1.1147521278310595e6
1.1140521656673667e6
1.1177345622232247e6
1.111171304169794e6
1.125304126962716e6
99999.99658698325
100000.00574772104
99999.99075485824
100000.01530813973
99999.97526027967
100000.04046704897
99999.93469105252
100000.10572117043
99999.8303172544
100000.27199089213
99999.5664616832
100000.69041179157
99998.89896234956
100001.77573753057
99997.05537360595
100005.15331028025
99990.13094242539
100021.10680371785
99949.15065224169
100132.80663303814
99630.34440523083
101055.12717316055
96971.42079305911
109173.9952791757
75735.47855994919
279429.5962885188
745671.807518921
1.0064943095640482e6
1.0243823675189234e6
1.0331140742901515e6
1.041933246942596e6
1.0500243520974957e6
1.0574596505294256e6
1.0642699114155578e6
1.0704441863889697e6
1.0760017422913106e6
1.0808966964952117e6
1.085165440171056e6
1.0886711789134291e6
1.0915473878211244e6
1.0934009659824958e6
1.0947396311652556e6
1.0943582656215595e6
1.094227223133986e6
1.0902531206635816e6
1.0905689573043925e6
1.0790059183333667e6
1.0930434797610473e6
99999.99658363654
100000.00575150416
99999.99070757937
100000.01541653134
99999.97495323287
100000.04115010792
99999.93312826955
100000.10904137645
99999.82331575062
100000.28630191744
99999.53759968773
100000.74756238416
99998.78738565264
100001.99033056168
99996.64949728105
100005.9083808221
99988.76487253644
100023.52024309886
99945.18907509843
100138.99604655088
99623.74531077221
101057.87874596368
97012.77438762819
108984.64006891169
76279.15999166826
223618.7601123278
675047.2705903205
984514.7183202218
1.019588377555619e6
1.0262613112144294e6
1.0348481649174402e6
1.04239465736332e6
1.0492715619407198e6
1.0554557645447087e6
1.0609393363725557e6
1.0657301314995408e6
1.0697732911957211e6
1.0730924006961014e6
1.0755434248952821e6
1.0772501912248032e6
1.0778379973228346e6
1.0778287190366727e6
1.076138043625226e6
1.0747383379606337e6
1.0699692520988737e6
1.069392909648143e6
1.0578254838173033e6
1.0711069396775542e6
99999.99666748116
100000.00565199202
99999.99080791007
100000.01536908682
99999.97476470028
100000.04192212557
99999.93087395205
100000.1145414946
99999.81070711977
100000.31365630904
99999.48005952965
100000.86513851328
99998.55285402793
100002.44615134546
99995.79116740065
100007.456130041
99986.17623848336
100027.27007009182
99941.83574373307
100134.26536014644
99666.68398521258
100877.25290892372
97636.56097721482
106842.78974256023
81904.12367492437
172617.38398894394
595259.8382914873
953191.6548620727
1.0143679630670056e6
1.0190844800465783e6
1.0273440912902115e6
1.0343059677427661e6
1.0405669395703621e6
1.0460597141582094e6
1.0507714965459902e6
1.0546921806878617e6
1.0577452887503384e6
1.059920701599385e6
1.0610254994752891e6
1.0611045538996537e6
1.0596519065774588e6
1.05698279235879e6
1.0516181907853775e6
1.0451023410255648e6
1.0324431625511529e6
1.0218325295439172e6
992491.0863956088
998974.5333741945
99999.99687807215
100000.00534166052
99999.99125125018
100000.01475516961
99999.97549550391
100000.04119575657
99999.93102815554
100000.11619156435
99999.80415470104
100000.33163140398
99999.4367047919
100000.96181732556
99998.34824485988
100002.85952507221
99994.99658945017
100008.88524647236
99983.88841118393
100030.05730511127
99941.70888199507
100118.56067238707
99744.83848961904
100583.43645878146
98598.37148825928
103638.6794963489
90742.74034424686
129470.01881676466
508106.7321334388
909931.6309682148
1.0078129198874234e6
1.011724658228568e6
1.0194514732952507e6
1.0258054523249841e6
1.0313994840248954e6
1.0361462411913342e6
1.0400204946957012e6
1.0429925586198063e6
1.0449633505678046e6
1.0458901712008801e6
1.0455449903492291e6
1.0439182643858528e6
1.0404780567209839e6
1.0354622628654159e6
1.0275379623019523e6
1.0180548245225822e6
1.0033079688592665e6
988458.6212964945
960337.1652096866
927306.1746384955
99999.99725145013
100000.00471579228
99999.99223034424
100000.01316147506
99999.97796658578
100000.0373162374
99999.93688026787
100000.10747989846
99999.81648752718
100000.31508434394
99999.45658556295
100000.94250143747
99998.35653593605
100002.88225086963
99994.91750078053
100009.007666826
99983.9709644014
100028.57610667273
99949.11385212273
100089.81320998575
99844.18034728368
100257.9647119654
99606.99382398136
100457.61505810643
99991.88377203443
97527.5534198032
416829.35882286174
852124.5780177541
998129.6652253865
1.0042994744282087e6
1.0111874024580641e6
1.0169344891143803e6
1.0218226261382756e6
1.0257801131167817e6
1.0287612037230133e6
1.0307131324551881e6
1.0315054352318308e6
1.0310475778772052e6
1.0290429582858704e6
1.0253629805571347e6
1.0192923567724151e6
1.0106776182591454e6
997529.4528320136
979600.2307257751
950173.1884123024
907373.122189366
822000.5289304552
670766.9521063312
99999.99778907312
100000.00374778727
99999.99380258279
100000.0104398955
99999.98250833794
100000.02955714746
99999.9499822228
100000.08515039731
99999.85445647029
100000.25017992557
99999.567811226
100000.75062354753
99998.69040953877
100002.2928606833
99995.98107441964
100007.0235009395
99987.85053107984
100020.51457519436
99967.0661699706
100046.89535707266
99953.04950194586
99967.08935823449
100408.1435972332
98189.12588088127
106637.2398112597
79472.96671983424
326255.3988337635
777919.4881523476
982483.7377801767
996840.9876066123
1.0025772628348354e6
1.0077395003755022e6
1.0119009566444954e6
1.0150427432431561e6
1.0170964114629349e6
1.0179862692656501e6
1.0175508971139814e6
1.0156499195777038e6
1.011926469140592e6
1.0061432926710198e6
997448.0013357205
985422.7776507825
967786.4285222407
943609.985614001
905952.1882854383
851424.8493533846
756439.1313742328
600938.0623243473
99999.99844115949
100000.00253181625
99999.99581325425
100000.00686614701
99999.98864947057
100000.01874311024
99999.96890750267
100000.05168276961
99999.91377100362
100000.14432983361
99999.75763583925
100000.4080200443
99999.3125720784
100001.15517460926
99998.07678098536
100003.13104802184
99995.14754470225
100006.68565278316
99993.61265495933
99995.1450047369
100055.91617943479
99758.42571758805
100846.01823328377
97268.55569677395
108754.25978457963
75460.73108483409
242080.0857403618
687320.3326768408
957256.4686618663
989238.1253080652
993714.3299381648
998293.9214869695
1.0017182140510398e6
1.0040300886268367e6
1.0051405693068381e6
1.0049537589237671e6
1.0032767181468497e6
999929.8985816644
994500.2113827817
986669.5015528768
975489.9701383548
960396.385999415
939001.78952995
910245.207190292
867573.5616894228
808739.040786563
714804.0746819078
582246.3102793762
99999.9991141077
100000.00126749031
99999.99792061358
100000.00309357698
99999.99519526819
100000.00711510555
99999.98947256446
100000.01494173726
99999.97961348825
100000.02554159379
99999.97299484364
100000.0154092439
100000.03167013249
99999.83269152098
100000.51539930407
99998.63187467256
100003.42378335401
99991.59657574604
100020.61557231477
99948.6576864594
100130.07945837935
99661.68845690916
100897.39941299263
97585.72724508123
106817.65870087907
82152.56618139899
169885.9417345255
582600.9010556589
918305.547001244
980948.7759520399
984776.7544575222
988697.1816643957
991374.0011466244
992850.1021549966
993019.9883164391
991768.7934305819
988879.2755418877
984140.966068363
977104.6146801265
967406.8823144796
954058.3285301682
936468.7313207332
912284.2471257506
880688.8886871375
835675.6014576259
776937.9058506733
688687.6974595066
578228.702710439
99999.99969998308
100000.0001899479
99999.99971804243
99999.9999090371
100000.00068920913
99999.99743682347
100000.00645495782
99999.98486312044
100000.0330310519
99999.93009056449
100000.14427269316
99999.70663771084
100000.5901422286
99998.82063150918
100002.34786720003
99995.33186010792
100009.28865048304
99981.45997097087
100037.17845225439
99924.88734123383
100152.92454673561
99685.06095479065
100654.82294984556
98625.08223804046
102968.29782725016
93847.9155925048
115381.73978032579
468533.43060288805
860946.1121819209
970211.9752071653
975897.1337006517
979021.6645692405
980952.7325066363
981602.7770185517
980855.618832423
978578.3276771116
974539.7787796506
968509.3246935434
960021.7233227579
948702.3532349973
933568.6054813527
914085.3644317966
888035.417311312
854965.7761459298
809567.895306776
753001.5198180615
672503.6169643595
579087.0401785127
100000.00011456126
99999.99947853439
100000.00089505057
99999.99790861255
100000.00403323941
99999.99178033101
100000.01595988462
99999.9688209582
100000.06002244631
99999.8846641319
100000.22044820624
99999.57945619595
100000.80054693444
99998.47793136611
100002.89001406122
99994.52179875477
100010.35320283573
99980.53788462734
100036.21556144634
99933.81373288468
100116.79980788256
99807.10240916778
100271.2670992568
99781.55769626325
99466.80427535238
104060.47720684634
83691.01533681182
353201.244016799
781066.4143619722
953295.7688056915
966969.343782357
969283.6607810779
970509.107102067