# vtk DataFile Version 2.0
JuliaCFD
ASCII
DATASET UNSTRUCTURED_GRID

POINTS 32898 float
0.0 0.0 -0.05
0.0125 0.0 -0.05
0.025 0.0 -0.05
0.0375 0.0 -0.05
0.05 0.0 -0.05
0.0625 0.0 -0.05
0.075 0.0 -0.05
0.0875 0.0 -0.05
0.1 0.0 -0.05
0.1125 0.0 -0.05
0.125 0.0 -0.05
0.1375 0.0 -0.05
0.15 0.0 -0.05
0.1625 0.0 -0.05
0.175 0.0 -0.05
0.1875 0.0 -0.05
0.2 0.0 -0.05
0.2125 0.0 -0.05
0.225 0.0 -0.05
0.2375 0.0 -0.05
0.25 0.0 -0.05
0.2625 0.0 -0.05
0.275 0.0 -0.05
0.2875 0.0 -0.05
0.3 0.0 -0.05
0.3125 0.0 -0.05
0.325 0.0 -0.05
0.3375 0.0 -0.05
0.35 0.0 -0.05
0.3625 0.0 -0.05
0.375 0.0 -0.05
0.3875 0.0 -0.05
0.4 0.0 -0.05
0.4125 0.0 -0.05
0.425 0.0 -0.05
0.4375 0.0 -0.05
0.45 0.0 -0.05
0.4625 0.0 -0.05
0.475 0.0 -0.05
0.4875 0.0 -0.05
0.5 0.0 -0.05
0.5125 0.0 -0.05
0.525 0.0 -0.05
0.5375 0.0 -0.05
0.55 0.0 -0.05
0.5625 0.0 -0.05
0.575 0.0 -0.05
0.5875 0.0 -0.05
0.6 0.0 -0.05
0.0 0.0125 -0.05
0.0125 0.0125 -0.05
0.025 0.0125 -0.05
0.0375 0.0125 -0.05
0.05 0.0125 -0.05
0.0625 0.0125 -0.05
0.075 0.0125 -0.05
0.0875 0.0125 -0.05
0.1 0.0125 -0.05
0.1125 0.0125 -0.05
0.125 0.0125 -0.05
0.1375 0.0125 -0.05
0.15 0.0125 -0.05
0.1625 0.0125 -0.05
0.175 0.0125 -0.05
0.1875 0.0125 -0.05
0.2 0.0125 -0.05
0.2125 0.0125 -0.05
0.225 0.0125 -0.05
0.2375 0.0125 -0.05
0.25 0.0125 -0.05
0.2625 0.0125 -0.05
0.275 0.0125 -0.05
0.2875 0.0125 -0.05
0.3 0.0125 -0.05
0.3125 0.0125 -0.05
0.325 0.0125 -0.05
0.3375 0.0125 -0.05
0.35 0.0125 -0.05
0.3625 0.0125 -0.05
0.375 0.0125 -0.05
0.3875 0.0125 -0.05
0.4 0.0125 -0.05
0.4125 0.0125 -0.05
0.425 0.0125 -0.05
0.4375 0.0125 -0.05
0.45 0.0125 -0.05
0.4625 0.0125 -0.05
0.475 0.0125 -0.05
0.4875 0.0125 -0.05
0.5 0.0125 -0.05
0.5125 0.0125 -0.05
0.525 0.0125 -0.05
0.5375 0.0125 -0.05
0.55 0.0125 -0.05
0.5625 0.0125 -0.05
0.575 0.0125 -0.05
0.5875 0.0125 -0.05
0.6 0.0125 -0.05
0.0 0.025 -0.05
0.0125 0.025 -0.05
0.025 0.025 -0.05
0.0375 0.025 -0.05
0.05 0.025 -0.05
0.0625 0.025 -0.05
0.075 0.025 -0.05
0.0875 0.025 -0.05
0.1 0.025 -0.05
0.1125 0.025 -0.05
0.125 0.025 -0.05
0.1375 0.025 -0.05
0.15 0.025 -0.05
0.1625 0.025 -0.05
0.175 0.025 -0.05
0.1875 0.025 -0.05
0.2 0.025 -0.05
0.2125 0.025 -0.05
0.225 0.025 -0.05
0.2375 0.025 -0.05
0.25 0.025 -0.05
0.2625 0.025 -0.05
0.275 0.025 -0.05
0.2875 0.025 -0.05
0.3 0.025 -0.05
0.3125 0.025 -0.05
0.325 0.025 -0.05
0.3375 0.025 -0.05
0.35 0.025 -0.05
0.3625 0.025 -0.05
0.375 0.025 -0.05
0.3875 0.025 -0.05
0.4 0.025 -0.05
0.4125 0.025 -0.05
0.425 0.025 -0.05
0.4375 0.025 -0.05
0.45 0.025 -0.05
0.4625 0.025 -0.05
0.475 0.025 -0.05
0.4875 0.025 -0.05
0.5 0.025 -0.05
0.5125 0.025 -0.05
0.525 0.025 -0.05
0.5375 0.025 -0.05
0.55 0.025 -0.05
0.5625 0.025 -0.05
0.575 0.025 -0.05
0.5875 0.025 -0.05
0.6 0.025 -0.05
0.0 0.0375 -0.05
0.0125 0.0375 -0.05
0.025 0.0375 -0.05
0.0375 0.0375 -0.05
0.05 0.0375 -0.05
0.0625 0.0375 -0.05
0.075 0.0375 -0.05
0.0875 0.0375 -0.05
0.1 0.0375 -0.05
0.1125 0.0375 -0.05
0.125 0.0375 -0.05
0.1375 0.0375 -0.05
0.15 0.0375 -0.05
0.1625 0.0375 -0.05
0.175 0.0375 -0.05
0.1875 0.0375 -0.05
0.2 0.0375 -0.05
0.2125 0.0375 -0.05
0.225 0.0375 -0.05
0.2375 0.0375 -0.05
0.25 0.0375 -0.05
0.2625 0.0375 -0.05
0.275 0.0375 -0.05
0.2875 0.0375 -0.05
0.3 0.0375 -0.05
0.3125 0.0375 -0.05
0.325 0.0375 -0.05
0.3375 0.0375 -0.05
0.35 0.0375 -0.05
0.3625 0.0375 -0.05
0.375 0.0375 -0.05
0.3875 0.0375 -0.05
0.4 0.0375 -0.05
0.4125 0.0375 -0.05
0.425 0.0375 -0.05
0.4375 0.0375 -0.05
0.45 0.0375 -0.05
0.4625 0.0375 -0.05
0.475 0.0375 -0.05
0.4875 0.0375 -0.05
0.5 0.0375 -0.05
0.5125 0.0375 -0.05
0.525 0.0375 -0.05
0.5375 0.0375 -0.05
0.55 0.0375 -0.05
0.5625 0.0375 -0.05
0.575 0.0375 -0.05
0.5875 0.0375 -0.05
0.6 0.0375 -0.05
0.0 0.05 -0.05
0.0125 0.05 -0.05
0.025 0.05 -0.05
0.0375 0.05 -0.05
0.05 0.05 -0.05
0.0625 0.05 -0.05
0.075 0.05 -0.05
0.0875 0.05 -0.05
0.1 0.05 -0.05
0.1125 0.05 -0.05
0.125 0.05 -0.05
0.1375 0.05 -0.05
0.15 0.05 -0.05
0.1625 0.05 -0.05
0.175 0.05 -0.05
0.1875 0.05 -0.05
0.2 0.05 -0.05
0.2125 0.05 -0.05
0.225 0.05 -0.05
0.2375 0.05 -0.05
0.25 0.05 -0.05
0.2625 0.05 -0.05
0.275 0.05 -0.05
0.2875 0.05 -0.05
0.3 0.05 -0.05
0.3125 0.05 -0.05
0.325 0.05 -0.05
0.3375 0.05 -0.05
0.35 0.05 -0.05
0.3625 0.05 -0.05
0.375 0.05 -0.05
0.3875 0.05 -0.05
0.4 0.05 -0.05
0.4125 0.05 -0.05
0.425 0.05 -0.05
0.4375 0.05 -0.05
0.45 0.05 -0.05
0.4625 0.05 -0.05
0.475 0.05 -0.05
0.4875 0.05 -0.05
0.5 0.05 -0.05
0.5125 0.05 -0.05
0.525 0.05 -0.05
0.5375 0.05 -0.05
0.55 0.05 -0.05
0.5625 0.05 -0.05
0.575 0.05 -0.05
0.5875 0.05 -0.05
0.6 0.05 -0.05
0.0 0.0625 -0.05
0.0125 0.0625 -0.05
0.025 0.0625 -0.05
0.0375 0.0625 -0.05
0.05 0.0625 -0.05
0.0625 0.0625 -0.05
0.075 0.0625 -0.05
0.0875 0.0625 -0.05
0.1 0.0625 -0.05
0.1125 0.0625 -0.05
0.125 0.0625 -0.05
0.1375 0.0625 -0.05
0.15 0.0625 -0.05
0.1625 0.0625 -0.05
0.175 0.0625 -0.05
0.1875 0.0625 -0.05
0.2 0.0625 -0.05
0.2125 0.0625 -0.05
0.225 0.0625 -0.05
0.2375 0.0625 -0.05
0.25 0.0625 -0.05
0.2625 0.0625 -0.05
0.275 0.0625 -0.05
0.2875 0.0625 -0.05
0.3 0.0625 -0.05
0.3125 0.0625 -0.05
0.325 0.0625 -0.05
0.3375 0.0625 -0.05
0.35 0.0625 -0.05
0.3625 0.0625 -0.05
0.375 0.0625 -0.05
0.3875 0.0625 -0.05
0.4 0.0625 -0.05
0.4125 0.0625 -0.05
0.425 0.0625 -0.05
0.4375 0.0625 -0.05
0.45 0.0625 -0.05
0.4625 0.0625 -0.05
0.475 0.0625 -0.05
0.4875 0.0625 -0.05
0.5 0.0625 -0.05
0.5125 0.0625 -0.05
0.525 0.0625 -0.05
0.5375 0.0625 -0.05
0.55 0.0625 -0.05
0.5625 0.0625 -0.05
0.575 0.0625 -0.05
0.5875 0.0625 -0.05
0.6 0.0625 -0.05
0.0 0.075 -0.05
0.0125 0.075 -0.05
0.025 0.075 -0.05
0.0375 0.075 -0.05
0.05 0.075 -0.05
0.0625 0.075 -0.05
0.075 0.075 -0.05
0.0875 0.075 -0.05
0.1 0.075 -0.05
0.1125 0.075 -0.05
0.125 0.075 -0.05
0.1375 0.075 -0.05
0.15 0.075 -0.05
0.1625 0.075 -0.05
0.175 0.075 -0.05
0.1875 0.075 -0.05
0.2 0.075 -0.05
0.2125 0.075 -0.05
0.225 0.075 -0.05
0.2375 0.075 -0.05
0.25 0.075 -0.05
0.2625 0.075 -0.05
0.275 0.075 -0.05
0.2875 0.075 -0.05
0.3 0.075 -0.05
0.3125 0.075 -0.05
0.325 0.075 -0.05
0.3375 0.075 -0.05
0.35 0.075 -0.05
0.3625 0.075 -0.05
0.375 0.075 -0.05
0.3875 0.075 -0.05
0.4 0.075 -0.05
0.4125 0.075 -0.05
0.425 0.075 -0.05
0.4375 0.075 -0.05
0.45 0.075 -0.05
0.4625 0.075 -0.05
0.475 0.075 -0.05
0.4875 0.075 -0.05
0.5 0.075 -0.05
0.5125 0.075 -0.05
0.525 0.075 -0.05
0.5375 0.075 -0.05
0.55 0.075 -0.05
0.5625 0.075 -0.05
0.575 0.075 -0.05
0.5875 0.075 -0.05
0.6 0.075 -0.05
0.0 0.0875 -0.05
0.0125 0.0875 -0.05
0.025 0.0875 -0.05
0.0375 0.0875 -0.05
0.05 0.0875 -0.05
0.0625 0.0875 -0.05
0.075 0.0875 -0.05
0.0875 0.0875 -0.05
0.1 0.0875 -0.05
0.1125 0.0875 -0.05
0.125 0.0875 -0.05
0.1375 0.0875 -0.05
0.15 0.0875 -0.05
0.1625 0.0875 -0.05
0.175 0.0875 -0.05
0.1875 0.0875 -0.05
0.2 0.0875 -0.05
0.2125 0.0875 -0.05
0.225 0.0875 -0.05
0.2375 0.0875 -0.05
0.25 0.0875 -0.05
0.2625 0.0875 -0.05
0.275 0.0875 -0.05
0.2875 0.0875 -0.05
0.3 0.0875 -0.05
0.3125 0.0875 -0.05
0.325 0.0875 -0.05
0.3375 0.0875 -0.05
0.35 0.0875 -0.05
0.3625 0.0875 -0.05
0.375 0.0875 -0.05
0.3875 0.0875 -0.05
0.4 0.0875 -0.05
0.4125 0.0875 -0.05
0.425 0.0875 -0.05
0.4375 0.0875 -0.05
0.45 0.0875 -0.05
0.4625 0.0875 -0.05
0.475 0.0875 -0.05
0.4875 0.0875 -0.05
0.5 0.0875 -0.05
0.5125 0.0875 -0.05
0.525 0.0875 -0.05
0.5375 0.0875 -0.05
0.55 0.0875 -0.05
0.5625 0.0875 -0.05
0.575 0.0875 -0.05
0.5875 0.0875 -0.05
0.6 0.0875 -0.05
0.0 0.1 -0.05
0.0125 0.1 -0.05
0.025 0.1 -0.05
0.0375 0.1 -0.05
0.05 0.1 -0.05
0.0625 0.1 -0.05
0.075 0.1 -0.05
0.0875 0.1 -0.05
0.1 0.1 -0.05
0.1125 0.1 -0.05
0.125 0.1 -0.05
0.1375 0.1 -0.05
0.15 0.1 -0.05
0.1625 0.1 -0.05
0.175 0.1 -0.05
0.1875 0.1 -0.05
0.2 0.1 -0.05
0.2125 0.1 -0.05
0.225 0.1 -0.05
0.2375 0.1 -0.05
0.25 0.1 -0.05
0.2625 0.1 -0.05
0.275 0.1 -0.05
0.2875 0.1 -0.05
0.3 0.1 -0.05
0.3125 0.1 -0.05
0.325 0.1 -0.05
0.3375 0.1 -0.05
0.35 0.1 -0.05
0.3625 0.1 -0.05
0.375 0.1 -0.05
0.3875 0.1 -0.05
0.4 0.1 -0.05
0.4125 0.1 -0.05
0.425 0.1 -0.05
0.4375 0.1 -0.05
0.45 0.1 -0.05
0.4625 0.1 -0.05
0.475 0.1 -0.05
0.4875 0.1 -0.05
0.5 0.1 -0.05
0.5125 0.1 -0.05
0.525 0.1 -0.05
0.5375 0.1 -0.05
0.55 0.1 -0.05
0.5625 0.1 -0.05
0.575 0.1 -0.05
0.5875 0.1 -0.05
0.6 0.1 -0.05
0.0 0.1125 -0.05
0.0125 0.1125 -0.05
0.025 0.1125 -0.05
0.0375 0.1125 -0.05
0.05 0.1125 -0.05
0.0625 0.1125 -0.05
0.075 0.1125 -0.05
0.0875 0.1125 -0.05
0.1 0.1125 -0.05
0.1125 0.1125 -0.05
0.125 0.1125 -0.05
0.1375 0.1125 -0.05
0.15 0.1125 -0.05
0.1625 0.1125 -0.05
0.175 0.1125 -0.05
0.1875 0.1125 -0.05
0.2 0.1125 -0.05
0.2125 0.1125 -0.05
0.225 0.1125 -0.05
0.2375 0.1125 -0.05
0.25 0.1125 -0.05
0.2625 0.1125 -0.05
0.275 0.1125 -0.05
0.2875 0.1125 -0.05
0.3 0.1125 -0.05
0.3125 0.1125 -0.05
0.325 0.1125 -0.05
0.3375 0.1125 -0.05
0.35 0.1125 -0.05
0.3625 0.1125 -0.05
0.375 0.1125 -0.05
0.3875 0.1125 -0.05
0.4 0.1125 -0.05
0.4125 0.1125 -0.05
0.425 0.1125 -0.05
0.4375 0.1125 -0.05
0.45 0.1125 -0.05
0.4625 0.1125 -0.05
0.475 0.1125 -0.05
0.4875 0.1125 -0.05
0.5 0.1125 -0.05
0.5125 0.1125 -0.05
0.525 0.1125 -0.05
0.5375 0.1125 -0.05
0.55 0.1125 -0.05
0.5625 0.1125 -0.05
0.575 0.1125 -0.05
0.5875 0.1125 -0.05
0.6 0.1125 -0.05
0.0 0.125 -0.05
0.0125 0.125 -0.05
0.025 0.125 -0.05
0.0375 0.125 -0.05
0.05 0.125 -0.05
0.0625 0.125 -0.05
0.075 0.125 -0.05
0.0875 0.125 -0.05
0.1 0.125 -0.05
0.1125 0.125 -0.05
0.125 0.125 -0.05
0.1375 0.125 -0.05
0.15 0.125 -0.05
0.1625 0.125 -0.05
0.175 0.125 -0.05
0.1875 0.125 -0.05
0.2 0.125 -0.05
0.2125 0.125 -0.05
0.225 0.125 -0.05
0.2375 0.125 -0.05
0.25 0.125 -0.05
0.2625 0.125 -0.05
0.275 0.125 -0.05
0.2875 0.125 -0.05
0.3 0.125 -0.05
0.3125 0.125 -0.05
0.325 0.125 -0.05
0.3375 0.125 -0.05
0.35 0.125 -0.05
0.3625 0.125 -0.05
0.375 0.125 -0.05
0.3875 0.125 -0.05
0.4 0.125 -0.05
0.4125 0.125 -0.05
0.425 0.125 -0.05
0.4375 0.125 -0.05
0.45 0.125 -0.05
0.4625 0.125 -0.05
0.475 0.125 -0.05
0.4875 0.125 -0.05
0.5 0.125 -0.05
0.5125 0.125 -0.05
0.525 0.125 -0.05
0.5375 0.125 -0.05
0.55 0.125 -0.05
0.5625 0.125 -0.05
0.575 0.125 -0.05
0.5875 0.125 -0.05
0.6 0.125 -0.05
0.0 0.1375 -0.05
0.0125 0.1375 -0.05
0.025 0.1375 -0.05
0.0375 0.1375 -0.05
0.05 0.1375 -0.05
0.0625 0.1375 -0.05
0.075 0.1375 -0.05
0.0875 0.1375 -0.05
[...]
CELL_DATA 16128
SCALARS P float 1
LOOKUP_TABLE default
99999.99795084921
100000.00368483675
99999.99388575906
100000.01052935598
99999.98245355692
100000.02950522948
99999.9511400742
100000.08082090261
99999.86755684063
100000.21598649866
99999.65050290781
100000.56176206406
99999.10436801273
100001.41581076472
99997.78434502013
100003.42596821331
99994.78510431778
100007.76143440617
99988.87043908391
100014.84742807466
99983.4921039907
100007.5437674853
100040.31798377923
99785.71818309743
100790.73873576282
97460.57945796281
108283.23205384384
77178.02465756454
221700.6006322194
709081.18333809
1.0884513557626305e6
1.1158246114461736e6
1.1193793038546583e6
1.135534038692409e6
1.1452470624981094e6
1.1566650447288842e6
1.1664583235965036e6
1.1759714408722988e6
1.1845775261205677e6
1.1926792544451074e6
1.1997842713587442e6
1.2065928786875203e6
1.2118317181173724e6
1.2176062296633013e6
1.2201317831296443e6
1.2258730056024184e6
1.2234444592163246e6
1.2325298229318536e6
99999.99796381191
100000.0036588017
99999.99392066403
100000.01046910718
99999.98254441477
100000.02935257446
99999.95139648236
100000.08036184934
99999.86841632272
100000.21431172684
99999.65386210875
100000.55495295247
99999.11817840514
100001.38813219826
99997.8387804137
100003.32182330152
99994.9774001648
100007.42308741999
99989.42625620114
100014.03137872765
99984.43899334212
100007.16939049224
100037.8645808703
99797.07709163906
100755.9049088205
97548.25271075302
108072.17297032126
77506.47169733186
218781.92554436048
705806.4820760393
1.0908807913237137e6
1.1214891705164232e6
1.1252925631710328e6
1.141999659167933e6
1.1518716057168571e6
1.1634099461590387e6
1.1732806800115157e6
1.18286176353319e6
1.1915341114847888e6
1.19969953148384e6
1.206861809744469e6
1.2137187570777442e6
1.218984572652792e6
1.224771589389449e6
1.2272628162580563e6
1.2329837632617042e6
1.2304179998015394e6
1.2395929398090644e6
99999.99806088163
100000.00348900896
99999.99419638487
100000.0100047468
99999.98330032357
100000.02811244373
99999.95339317796
100000.07716541838
99999.8734482239
100000.20651362394
99999.66565833874
100000.53766686954
99999.14229627166
100001.35709525019
99997.87266894584
100003.29987669135
99994.94694270752
100007.60411928195
99988.86751875533
100015.47673146773
99980.96664171066
100015.20929387561
100019.49457812388
99838.72205189521
100660.71103108235
97757.61139936466
107571.71915243825
78355.63859621988
210086.36184283256
690810.9818131207
1.0824560629423677e6
1.118038724031977e6
1.120205380248116e6
1.1368457234049453e6
1.146445916755419e6
1.1577888578146372e6
1.1674951453076922e6
1.1769092754039117e6
1.1854268770686763e6
1.193438519688119e6
1.2004608875036002e6
1.2071868337259418e6
1.2123490574908904e6
1.2180498747736425e6
1.22049243906558e6
1.226202589843109e6
1.2235860233339788e6
1.2329459885968508e6
99999.99819920112
100000.00324638824
99999.99458939703
100000.00934331922
99999.98437532634
100000.02635146736
99999.956224772
100000.0726369279
99999.88057814339
100000.19544366532
99999.68249525009
100000.51271205099
99999.1779376851
100001.30898422263
99997.93153463953
100003.24203948968
99994.96685811579
100007.71830810154
99988.38515518478
100016.88030866378
99977.32796980493
100024.21086155454
99997.49841847568
99892.1564180325
100529.36626378917
98068.50625177265
106773.91314803492
79870.53816391654
197557.2253659898
670085.6129264862
1.0742780853631452e6
1.1188417192150839e6
1.1194368598728236e6
1.1366256843492105e6
1.1462723834249792e6
1.1576687662825403e6
1.167417137363537e6
1.1768473151423454e6
1.185388268398793e6
1.1934211400370006e6
1.2004759046331495e6
1.2072374330430073e6
1.2124458952207654e6
1.2181936067351396e6
1.2206725523091839e6
1.2264495889227197e6
1.2237552364328164e6
1.2333774188286925e6
99999.998370928
100000.00294525188
99999.99507741994
100000.00852184129
99999.98571153835
100000.02415978098
99999.95975686796
100000.06696723241
99999.88955641333
100000.18137706695
99999.70418787104
100000.47985581601
99999.22649615275
100001.23957230155
99998.02581148806
100003.12478488327
99995.08677173195
100007.66498513351
99988.17567190363
100017.86840143391
99974.2095520145
100032.95284298455
99973.88401278283
99954.54561541193
100363.99744325194
98488.38118250013
105629.17159658766
82287.30486567378
181370.02948381196
641124.818717826
1.0606097991409565e6
1.1175462343038872e6
1.1155905625670704e6
1.1329606021596275e6
1.1423543565472874e6
1.1535199264132804e6
1.1630804914787705e6
1.1723010350062547e6
1.1806513199283676e6
1.188491284336215e6
1.1953683235094745e6
1.2019569924733192e6
1.2070151556504918e6
1.212625286474992e6
1.2149830802287143e6
1.2207031505102897e6
1.217839001656072e6
1.2277400430138307e6
99999.99856634557
100000.00260313532
99999.99563276542
100000.00758680953
99999.98723470078
100000.02165689622
99999.96380243865
100000.06044503766
99999.89995167029
100000.16493749118
99999.72988889909
100000.44015246276
99999.28691182974
100001.14935059604
99998.15713169693
100002.94088645208
99995.32754911753
100007.39244678237
99988.36029183441
100018.16710671163
99972.22455026988
100040.08481774502
99951.58853934542
100019.77655298667
100176.40504928539
99000.93775049825
104152.12581669884
85741.07927919754
162648.75440119082
604890.2720269383
1.042683948841147e6
1.1168080690243945e6
1.1122114800295564e6
1.1299225130331712e6
1.1392429265463685e6
1.1502786494699963e6
1.159757802772102e6
1.1688563006364126e6
1.1771045075621537e6
1.1848414507849228e6
1.1916373533068704e6
1.198157119446594e6
1.203175459760943e6
1.2087639932921454e6
1.2111051313471864e6
1.2168714131460208e6
1.213884027394595e6
1.2241786914364959e6
99999.99877544575
100000.00223781714
99999.99622695797
100000.0065862952
99999.988866529
100000.01897187858
99999.96815125862
100000.05341246305
99999.91120952027
100000.14701850712
99999.75816109535
100000.39589317316
99999.35554979154
100001.0439821675
99998.3168575087
100002.70282431408
99995.67291685026
100006.91620175776
99988.94276063422
100017.69387913146
99971.7055191277
100044.5702853919
99933.51289194026
100080.41310959261
99984.53319216814
99569.4998367613
102422.0250120861
90232.28587853555
142442.25336281394
561163.1826019853
1.018535898334494e6
1.1151160328274635e6
1.1077918080319923e6
1.1255156446979889e6
1.1346777640981365e6
1.1454062096498339e6
1.1546656271178836e6
1.1634913463323282e6
1.1714853427955594e6
1.1789566876242086e6
1.1854971279615748e6
1.1917587979816864e6
1.1965351034027387e6
1.201891650125278e6
1.2040053984426034e6
1.2096441621189292e6
1.206355496650359e6
1.2170669185262094e6
99999.99898897817
100000.00186529642
99999.99683411022
100000.00556386629
99999.99053549551
100000.0162243487
99999.97260450541
100000.04620440767
99999.92276405837
100000.12858940072
99999.787332148
100000.35000081672
99999.42726900078
100000.93257732406
99998.48886056125
100002.43898933564
99996.0738655297
100006.31782345149
99989.79740498192
100016.61248501399
99972.54171230787
100046.10654599567
99921.59950168757
100129.43693520044
99810.32105125756
100135.27588334003
100603.91587766256
95490.37228833341
122185.81462766184
510531.3422994964
987251.8816967302
1.1125480632052352e6
1.1032011779252766e6
1.1206192160240011e6
1.1297355721939288e6
1.1401265374449857e6
1.149173105976082e6
1.1577224945725896e6
1.1654657371994755e6
1.1726843585247078e6
1.1789992945920273e6
1.1850560980476108e6
1.1896751070285635e6
1.1949116530224017e6
1.1969352634989452e6
1.202606648543469e6
1.199110560773106e6
1.2104060716117932e6
99999.99919916832
100000.00149835939
99999.99743356074
100000.00455344153
99999.99218660797
100000.0135050901
99999.97701200216
100000.03907422506
99999.93418039902
100000.11041363003
99999.816027817
100000.3050029861
99999.49732071343
100000.8241856789
99998.65572926888
100002.18295681184
99996.46600662758
100005.71892603536
99990.70134682403
100015.3092560962
99974.13640985783
100045.38007287896
99915.97250783155
100162.47473368868
99674.45996267688
100626.11448932918
98931.17815468376
100912.66292564478
103577.55633997211
453819.11129365646
947258.2662726957
1.1080982953934895e6
1.0983139503927017e6
1.1147811602973929e6
1.1238959125601796e6
1.1338091868254112e6
1.1425363839222973e6
1.1506808498303355e6
1.1580259848478518e6
1.1648166233907838e6
1.1706911212528895e6
1.1762799330803358e6
1.18041666534456e6
1.185155786038022e6
1.1866519056570115e6
1.1919630717925134e6
1.1878193619220948e6
1.1996874402487534e6
99999.99939993687
100000.00114627558
99999.99801075236
100000.0035774951
99999.99378587036
100000.01086611362
99999.98129541652
100000.03214323045
99999.94526735398
100000.09281100937
99999.84368057836
100000.26198705252
99999.56349477249
100000.72350074188
99998.8072606781
100001.95703631357
99996.80075962172
100005.2236846164
99991.4366187762
100014.22324189454
99975.66241222533
100043.77085540837
99914.9999452311
100178.89424571651
99591.18940707782
100972.05911613324
97659.20848759548
105592.31033273798
88549.92419703993
392513.5373764066
897140.9092017305
1.1006228939210714e6
1.0934549048174343e6
1.1081475056039004e6
1.1173775558595965e6
1.1267284694119783e6
1.1350850204604836e6
1.1427699489884966e6
1.1496689674497428e6
1.1560027718467042e6
1.161442000016925e6
1.166623686094789e6
1.1704172600027416e6
1.1748870937153331e6
1.1761916683168064e6
1.1815166970464117e6
1.1770721553841028e6
1.1898225559467622e6
99999.99958651415
100000.00081581093
99999.99855571556
100000.00264980001
99999.99531600317
100000.00832666595
99999.98544075085
100000.02540449511
99999.95608771198
100000.07559480671
99999.87072334113
100000.22006722042
99999.6274327506
100000.62777140753
99998.9474669745
100001.756902816
99997.07839978545
100004.8496517212
99991.93103206831
100013.56741048458
99976.58074591948
100042.4525807781
99916.5634828502
100180.81950842097
99565.45780844158
101124.53784199631
96993.6568171422
108536.46606932806
78939.93954410133
328740.60047098424
835617.3191035502
1.0882921865124865e6
1.0887091585245638e6
1.1006161368387472e6
1.1100464285018716e6
1.1187209580927594e6
1.1265882623240498e6
1.1336668034740973e6
1.1399244289757938e6
1.1455430963234273e6
1.150189864949131e6
1.1544782614626787e6
1.1572481872882515e6
1.1605841124072073e6
1.160564684897573e6
1.1647675426506968e6
1.1586578075093164e6
1.1720581091310836e6
99999.99975469349
100000.00051316254
99999.99905966579
100000.00178219673
99999.99676396418
100000.00589643454
99999.98945689172
100000.01879676805
99999.96683317398
100000.05828121178
99999.89826571922
100000.1768544511
99999.69406132048
100000.52718977522
99999.09523001299
100001.5473379479
99997.36198871264
100004.4892075092
99992.3545206708
100013.10513425637
99977.1346321612
100041.39497861831
99919.88432908551
100170.55370489876
99593.81176418655
101071.02378516909
97026.53054639358
109039.59154176488
75941.2669455276
265225.48909638764
762001.0915081766
1.0687850811213285e6
1.0841199008508632e6
1.0922632995668543e6
1.1019403171929026e6
1.1098728211274499e6
1.1171611728373785e6
1.1235512280369112e6
1.1290875085832325e6
1.1339414513467965e6
1.1378130952300003e6
1.141338206917632e6
1.1434259999363236e6
1.1461887734433394e6
1.1458037879289554e6
1.1499018873402567e6
1.1434696118131515e6
1.158056191550409e6
99999.99990011108
100000.00024587891
99999.99951122075
100000.00099246336
99999.99810497179
100000.00360727201
99999.99331254436
100000.01232646716
99999.9775876676
100000.04053612231
99999.92725171587
100000.13000561872
99999.76878464715
100000.40987325567
99999.27579749648
100001.27632886016
99997.75596226528
100003.93912238914
99993.08942087686
100012.15209685352
99978.45944172762
100038.95468441148
99926.61047729496
100148.59595438454
99666.48241706834
100845.21170484679
97667.82213938887
107239.87825450735
79429.26093054077
205116.65089323756
676497.4653168
1.039272363802228e6
1.0794360439507223e6
1.083214885740141e6
1.093021544760086e6
1.1001502823517595e6
1.1067052036491868e6
1.1122245692790563e6
1.1167711902221902e6
1.1204720874173644e6
1.122977171981085e6
1.124840038468628e6
1.124841071907038e6
1.1250492084893114e6
1.1212826326427236e6
1.1219405456521038e6
1.1103909417609428e6
1.1249574574143915e6
100000.0000180532
100000.00002355751
99999.99989446694
100000.00030894889
99999.99929158269
100000.00153779809
99999.9968826098
100000.00618348333
99999.98808501287
100000.02268143115
99999.95742769941
100000.07931677642
99999.85330216096
100000.27010302599
99999.50466892422
100000.90581186046
99998.3478102443
100003.00696593283
99994.53992656038
100009.89595274476
99982.08357100197
100032.52731023823
99940.28014312882
100113.11193859827
99771.4199281633
100516.80104629946
98668.73963533626
104025.68024006815
87733.21101591583
152112.21823925467
580557.0169870892
996455.9739489526
1.0738638847259248e6
1.0737512954558742e6
1.0833198884530019e6
1.0896395821381572e6
1.0953346503200494e6
1.0998796948549983e6
1.1033317874240342e6
1.1058148395016536e6
1.106998514262171e6
1.1074540053916853e6
1.1061034498169369e6
1.1050206398008324e6
1.1004782340516374e6
1.1002820520803882e6
1.0887986352858387e6
1.102623569172884e6
100000.00010411131
99999.99985649191
100000.00019067965
99999.99976806119
100000.0002560021
99999.99981328845
99999.99993890824
100000.00077654982
99999.99760382163
100000.00596423345
99999.98668540659
100000.02824066312
99999.9421963338
100000.11583140047
99999.771515447
100000.44587853078
99999.13745802519
100001.65637124436
99996.84399692349
100005.9591078125
99988.88856852615
100020.36386930835
99963.58831565529
100062.91660221825
99895.3997569559
100167.91404224685
99710.80768989875
100660.47016641355
97715.27014117659
110567.01726358874
477392.5110701139
936701.8363776993
1.0655550372159614e6
1.064204625369333e6
1.072833706876861e6
1.0783612820635643e6
1.0830259046651474e6
1.086400064079096e6
1.0884503825891512e6
1.0892335954960296e6
1.0882800054121525e6
1.0859501749885534e6
1.0807576012961513e6
1.074345709144632e6
1.0616018025518467e6
1.051070956527242e6
1.0213054126200702e6
1.0283781116521704e6
100000.00015559146
99999.99975235957
100000.00038393769
99999.99940365215
100000.00092889475
99999.99857262352
100000.00220698763
99999.9966397419
100000.00511650159
99999.99234063333
100000.0113407929
99999.9836489533
100000.02279094393
99999.9701755882
100000.034739344
99999.97014289143
99999.997197223
100000.10292444422
99999.64988672142
100000.88980724505
99998.06425268645
100003.63280080835
99994.67112137082
100002.63854895439
100021.67093252768
99869.78890529451
100511.04612119682
98249.53483067965
105530.67718022651
84697.59304047616
372437.3366625254
856923.1719539183
1.0512226782017958e6
1.0548664255331154e6
1.0616109954728994e6
1.066409479479202e6
1.0699293140418152e6
1.0720246818790704e6
1.072560139875993e6
1.0715530058030235e6
1.068507710642766e6
1.0637128231653946e6
1.0558416830149642e6
1.0463558225284313e6
1.0314916637374369e6
1.0166771035332744e6
988375.5869890712
954706.4875017141
100000.00017315318
99999.99971222228
100000.00046865738
99999.9992318564
100000.0012689403
99999.99791095035
100000.0034761004
99999.99422279562
100000.00968335928
99999.98373823118
100000.02748954762
99999.9533597042
100000.07956453576
99999.86369513998
100000.23460940037
99999.59450012364
100000.70399177146
99998.77202037691
100002.15571649781
99996.1787751093
100006.89073712299
99987.19137184476
100025.05442468892
99946.9674060648
100123.63548330337
99679.40602954401
100900.11243154235
97336.14805555838
108391.86034537715
76130.89665426701
272780.6029219507
756096.5441060982
1.0262642491150183e6
1.045823814748675e6
1.0497758106683646e6
1.0538619115055823e6
1.056136720600527e6
1.0568112269977385e6
1.0556085262625832e6
1.0524440380362552e6
1.0466282680607364e6
1.0380499403538901e6
1.0246933721448141e6
1.0063760062415367e6
976177.124900726
932393.3560044934
844731.7184796986
690208.2810291827
100000.00016178362
99999.99972789655
100000.00045531821
99999.9992386969
100000.0012892455
99999.99782463639
100000.00371326259
99999.9936583904
100000.01092620581
99999.98110452475
100000.03291782331
99999.94234347666
100000.10167369571
99999.81960926336
100000.32215453454
99999.42106559889
100001.04702510333
99998.09466759425
100003.48929074673
99993.56778878244
100011.94899723526
99977.57936862402
100042.70345361922
99916.64103480209
100169.23456794102
99634.25795796436
100859.56140183246
97788.67329764883
106433.16666299655
81738.47041432747
186107.25557908328
636149.883722776
984949.7497536726
1.0365669340042281e6
1.0376354826547685e6
1.0408578145542684e6
1.0418441166897201e6
1.0410232617936336e6
1.0380104565243588e6
1.0326224337576163e6
1.0240242676804289e6
1.0118351490606e6
993726.1301640993
968837.0611024224
929963.5029442322
874004.6713911926
776175.3966793031
617430.4890651342
100000.000130435
99999.99978244586
100000.00037079328
99999.99937798725
100000.00106500351
99999.99819025859
100000.00311573049
99999.99463719247
100000.0093124163
99999.98376957633
100000.02849299542
99999.94970063517
100000.08940695389
99999.84004999003
100000.28813649385
99999.4774057759
100000.95436533421
99998.24558035792
100003.24566484845
99993.96187920232
100011.28771932586
99978.82673638953
100039.80272153293
99925.12762942888
100140.9322056993
99733.58136947553
100511.87687371456
98972.6054009869
102315.40001019687
94200.77743372331
120769.14264474095
502887.5094309999
920359.027086782
1.0248184227462629e6
1.0255389847759655e6
1.0275328101443336e6
1.0272471267362074e6
1.0249076514177815e6
1.020093283151668e6
1.0125331576537812e6
1.0012929391857289e6
985844.5741038395
963741.1046618968
934009.8312671806
889806.5949884278
829281.2017810812
732335.8633854265
596939.4063948967
100000.00009013482
99999.99985418872
100000.00025201008
99999.99958264231
100000.00071477849
99999.99879577018
100000.00206148227
99999.99648411882
100000.0060488714
99999.98957544832
100000.01807901477
99999.96851807478
100000.05514094335
99999.90290952341
100000.17198640377
99999.69351957129
100000.54956411435
99999.00858263503
100001.7985455492
99996.72319596443
100005.98135104221
99989.1136089995
100019.58941308896
99965.72664987805
100056.3197084583
99920.30910199782
100064.16787313682
100146.70376207163
98879.94294893053
104734.0962116183
84176.89708711536
367330.6035626016
826581.6078063368
1.0055652978651589e6
1.0136073123322132e6
1.0139793025016899e6
1.0125191329765688e6
1.008724266503643e6
1.0022126565712942e6
992665.4912126021
979106.955668669
960988.4702744059
935894.8712505458
903116.6041190596
856365.5559755227
795770.1619885825
704554.5031930638
591480.4682703897
100000.00005123542
99999.99992272841
100000.00013524688
99999.99978526539
100000.000362022
99999.99941297212
100000.00097262599
99999.99841458262
100000.00259850203
99999.9957807229
100000.0068326365
99999.98904319426
100000.01739585065
99999.9728284051
100000.04149671337
99999.93882723855
100000.08512446773
99999.89391965285
100000.10044049112
99999.99838916793
99999.6376470026
100001.43718237434
99995.63223427253
100012.23184814844
99966.40605779241
100093.25425704363
99732.44129537663
100790.94245533022
97574.90047314164
107788.13410691418
76647.40818989526
243821.3019382802
702439.5316602824
971531.9754105443
1.0017010964415165e6
1.000438549887081e6
997858.2020206685
992716.7277401604
984670.6188209102
973391.3520073169
957913.3452945078
937748.833175568
910627.2934336978
876210.2873712956
828947.2012400784
770403.4097278549
687052.9466666516
591093.2584197364
100000.00002090953
99999.99997433768
100000.00004590866
99999.999938371
100000.0000955194
99999.99987539189
100000.00016232245
99999.99983727232
100000.0000828914
100000.000248508
99999.9988483255
100000.00339134157
99999.99145225184
100000.02002936546
99999.95506835851
100000.09811850647
99999.7895959027
100000.44569484454
99999.06392174197
100001.95467760556
99995.93389663385
100008.44072573462
99982.48680783412
100036.3960791658
99923.97051010048
100160.39763016137
99654.52940754828
100768.35282091053
98198.38451618988
104626.08405060008
87784.73376907689
147134.82414825133
553427.772639035
912920.9570032321
988175.8299309382
987254.2712590309
983495.1204299816
977124.2137569984
967727.1862726281
954992.9950106796