# vtk DataFile Version 2.0
JuliaCFD
ASCII
DATASET UNSTRUCTURED_GRID

POINTS 32898 float
0.0 0.0 -0.05
0.0125 0.0 -0.05
0.025 0.0 -0.05
0.0375 0.0 -0.05
0.05 0.0 -0.05
0.0625 0.0 -0.05
0.075 0.0 -0.05
0.0875 0.0 -0.05
0.1 0.0 -0.05
0.1125 0.0 -0.05
0.125 0.0 -0.05
0.1375 0.0 -0.05
0.15 0.0 -0.05
0.1625 0.0 -0.05
0.175 0.0 -0.05
0.1875 0.0 -0.05
0.2 0.0 -0.05
0.2125 0.0 -0.05
0.225 0.0 -0.05
0.2375 0.0 -0.05
0.25 0.0 -0.05
0.2625 0.0 -0.05
0.275 0.0 -0.05
0.2875 0.0 -0.05
0.3 0.0 -0.05
0.3125 0.0 -0.05
0.325 0.0 -0.05
0.3375 0.0 -0.05
0.35 0.0 -0.05
0.3625 0.0 -0.05
0.375 0.0 -0.05
0.3875 0.0 -0.05
0.4 0.0 -0.05
0.4125 0.0 -0.05
0.425 0.0 -0.05
0.4375 0.0 -0.05
0.45 0.0 -0.05
0.4625 0.0 -0.05
0.475 0.0 -0.05
0.4875 0.0 -0.05
0.5 0.0 -0.05
0.5125 0.0 -0.05
0.525 0.0 -0.05
0.5375 0.0 -0.05
0.55 0.0 -0.05
0.5625 0.0 -0.05
0.575 0.0 -0.05
0.5875 0.0 -0.05
0.6 0.0 -0.05
0.0 0.0125 -0.05
0.0125 0.0125 -0.05
0.025 0.0125 -0.05
0.0375 0.0125 -0.05
0.05 0.0125 -0.05
0.0625 0.0125 -0.05
0.075 0.0125 -0.05
0.0875 0.0125 -0.05
0.1 0.0125 -0.05
0.1125 0.0125 -0.05
0.125 0.0125 -0.05
0.1375 0.0125 -0.05
0.15 0.0125 -0.05
0.1625 0.0125 -0.05
0.175 0.0125 -0.05
0.1875 0.0125 -0.05
0.2 0.0125 -0.05
0.2125 0.0125 -0.05
0.225 0.0125 -0.05
0.2375 0.0125 -0.05
0.25 0.0125 -0.05
0.2625 0.0125 -0.05
0.275 0.0125 -0.05
0.2875 0.0125 -0.05
0.3 0.0125 -0.05
0.3125 0.0125 -0.05
0.325 0.0125 -0.05
0.3375 0.0125 -0.05
0.35 0.0125 -0.05
0.3625 0.0125 -0.05
0.375 0.0125 -0.05
0.3875 0.0125 -0.05
0.4 0.0125 -0.05
0.4125 0.0125 -0.05
0.425 0.0125 -0.05
0.4375 0.0125 -0.05
0.45 0.0125 -0.05
0.4625 0.0125 -0.05
0.475 0.0125 -0.05
0.4875 0.0125 -0.05
0.5 0.0125 -0.05
0.5125 0.0125 -0.05
0.525 0.0125 -0.05
0.5375 0.0125 -0.05
0.55 0.0125 -0.05
0.5625 0.0125 -0.05
0.575 0.0125 -0.05
0.5875 0.0125 -0.05
0.6 0.0125 -0.05
0.0 0.025 -0.05
0.0125 0.025 -0.05
0.025 0.025 -0.05
0.0375 0.025 -0.05
0.05 0.025 -0.05
0.0625 0.025 -0.05
0.075 0.025 -0.05
0.0875 0.025 -0.05
0.1 0.025 -0.05
0.1125 0.025 -0.05
0.125 0.025 -0.05
0.1375 0.025 -0.05
0.15 0.025 -0.05
0.1625 0.025 -0.05
0.175 0.025 -0.05
0.1875 0.025 -0.05
0.2 0.025 -0.05
0.2125 0.025 -0.05
0.225 0.025 -0.05
0.2375 0.025 -0.05
0.25 0.025 -0.05
0.2625 0.025 -0.05
0.275 0.025 -0.05
0.2875 0.025 -0.05
0.3 0.025 -0.05
0.3125 0.025 -0.05
0.325 0.025 -0.05
0.3375 0.025 -0.05
0.35 0.025 -0.05
0.3625 0.025 -0.05
0.375 0.025 -0.05
0.3875 0.025 -0.05
0.4 0.025 -0.05
0.4125 0.025 -0.05
0.425 0.025 -0.05
0.4375 0.025 -0.05
0.45 0.025 -0.05
0.4625 0.025 -0.05
0.475 0.025 -0.05
0.4875 0.025 -0.05
0.5 0.025 -0.05
0.5125 0.025 -0.05
0.525 0.025 -0.05
0.5375 0.025 -0.05
0.55 0.025 -0.05
0.5625 0.025 -0.05
0.575 0.025 -0.05
0.5875 0.025 -0.05
0.6 0.025 -0.05
0.0 0.0375 -0.05
0.0125 0.0375 -0.05
0.025 0.0375 -0.05
0.0375 0.0375 -0.05
0.05 0.0375 -0.05
0.0625 0.0375 -0.05
0.075 0.0375 -0.05
0.0875 0.0375 -0.05
0.1 0.0375 -0.05
0.1125 0.0375 -0.05
0.125 0.0375 -0.05
0.1375 0.0375 -0.05
0.15 0.0375 -0.05
0.1625 0.0375 -0.05
0.175 0.0375 -0.05
0.1875 0.0375 -0.05
0.2 0.0375 -0.05
0.2125 0.0375 -0.05
0.225 0.0375 -0.05
0.2375 0.0375 -0.05
0.25 0.0375 -0.05
0.2625 0.0375 -0.05
0.275 0.0375 -0.05
0.2875 0.0375 -0.05
0.3 0.0375 -0.05
0.3125 0.0375 -0.05
0.325 0.0375 -0.05
0.3375 0.0375 -0.05
0.35 0.0375 -0.05
0.3625 0.0375 -0.05
0.375 0.0375 -0.05
0.3875 0.0375 -0.05
0.4 0.0375 -0.05
0.4125 0.0375 -0.05
0.425 0.0375 -0.05
0.4375 0.0375 -0.05
0.45 0.0375 -0.05
0.4625 0.0375 -0.05
0.475 0.0375 -0.05
0.4875 0.0375 -0.05
0.5 0.0375 -0.05
0.5125 0.0375 -0.05
0.525 0.0375 -0.05
0.5375 0.0375 -0.05
0.55 0.0375 -0.05
0.5625 0.0375 -0.05
0.575 0.0375 -0.05
0.5875 0.0375 -0.05
0.6 0.0375 -0.05
0.0 0.05 -0.05
0.0125 0.05 -0.05
0.025 0.05 -0.05
0.0375 0.05 -0.05
0.05 0.05 -0.05
0.0625 0.05 -0.05
0.075 0.05 -0.05
0.0875 0.05 -0.05
0.1 0.05 -0.05
0.1125 0.05 -0.05
0.125 0.05 -0.05
0.1375 0.05 -0.05
0.15 0.05 -0.05
0.1625 0.05 -0.05
0.175 0.05 -0.05
0.1875 0.05 -0.05
0.2 0.05 -0.05
0.2125 0.05 -0.05
0.225 0.05 -0.05
0.2375 0.05 -0.05
0.25 0.05 -0.05
0.2625 0.05 -0.05
0.275 0.05 -0.05
0.2875 0.05 -0.05
0.3 0.05 -0.05
0.3125 0.05 -0.05
0.325 0.05 -0.05
0.3375 0.05 -0.05
0.35 0.05 -0.05
0.3625 0.05 -0.05
0.375 0.05 -0.05
0.3875 0.05 -0.05
0.4 0.05 -0.05
0.4125 0.05 -0.05
0.425 0.05 -0.05
0.4375 0.05 -0.05
0.45 0.05 -0.05
0.4625 0.05 -0.05
0.475 0.05 -0.05
0.4875 0.05 -0.05
0.5 0.05 -0.05
0.5125 0.05 -0.05
0.525 0.05 -0.05
0.5375 0.05 -0.05
0.55 0.05 -0.05
0.5625 0.05 -0.05
0.575 0.05 -0.05
0.5875 0.05 -0.05
0.6 0.05 -0.05
0.0 0.0625 -0.05
0.0125 0.0625 -0.05
0.025 0.0625 -0.05
0.0375 0.0625 -0.05
0.05 0.0625 -0.05
0.0625 0.0625 -0.05
0.075 0.0625 -0.05
0.0875 0.0625 -0.05
0.1 0.0625 -0.05
0.1125 0.0625 -0.05
0.125 0.0625 -0.05
0.1375 0.0625 -0.05
0.15 0.0625 -0.05
0.1625 0.0625 -0.05
0.175 0.0625 -0.05
0.1875 0.0625 -0.05
0.2 0.0625 -0.05
0.2125 0.0625 -0.05
0.225 0.0625 -0.05
0.2375 0.0625 -0.05
0.25 0.0625 -0.05
0.2625 0.0625 -0.05
0.275 0.0625 -0.05
0.2875 0.0625 -0.05
0.3 0.0625 -0.05
0.3125 0.0625 -0.05
0.325 0.0625 -0.05
0.3375 0.0625 -0.05
0.35 0.0625 -0.05
0.3625 0.0625 -0.05
0.375 0.0625 -0.05
0.3875 0.0625 -0.05
0.4 0.0625 -0.05
0.4125 0.0625 -0.05
0.425 0.0625 -0.05
0.4375 0.0625 -0.05
0.45 0.0625 -0.05
0.4625 0.0625 -0.05
0.475 0.0625 -0.05
0.4875 0.0625 -0.05
0.5 0.0625 -0.05
0.5125 0.0625 -0.05
0.525 0.0625 -0.05
0.5375 0.0625 -0.05
0.55 0.0625 -0.05
0.5625 0.0625 -0.05
0.575 0.0625 -0.05
0.5875 0.0625 -0.05
0.6 0.0625 -0.05
0.0 0.075 -0.05
0.0125 0.075 -0.05
0.025 0.075 -0.05
0.0375 0.075 -0.05
0.05 0.075 -0.05
0.0625 0.075 -0.05
0.075 0.075 -0.05
0.0875 0.075 -0.05
0.1 0.075 -0.05
0.1125 0.075 -0.05
0.125 0.075 -0.05
0.1375 0.075 -0.05
0.15 0.075 -0.05
0.1625 0.075 -0.05
0.175 0.075 -0.05
0.1875 0.075 -0.05
0.2 0.075 -0.05
0.2125 0.075 -0.05
0.225 0.075 -0.05
0.2375 0.075 -0.05
0.25 0.075 -0.05
0.2625 0.075 -0.05
0.275 0.075 -0.05
0.2875 0.075 -0.05
0.3 0.075 -0.05
0.3125 0.075 -0.05
0.325 0.075 -0.05
0.3375 0.075 -0.05
0.35 0.075 -0.05
0.3625 0.075 -0.05
0.375 0.075 -0.05
0.3875 0.075 -0.05
0.4 0.075 -0.05
0.4125 0.075 -0.05
0.425 0.075 -0.05
0.4375 0.075 -0.05
0.45 0.075 -0.05
0.4625 0.075 -0.05
0.475 0.075 -0.05
0.4875 0.075 -0.05
0.5 0.075 -0.05
0.5125 0.075 -0.05
0.525 0.075 -0.05
0.5375 0.075 -0.05
0.55 0.075 -0.05
0.5625 0.075 -0.05
0.575 0.075 -0.05
0.5875 0.075 -0.05
0.6 0.075 -0.05
0.0 0.0875 -0.05
0.0125 0.0875 -0.05
0.025 0.0875 -0.05
0.0375 0.0875 -0.05
0.05 0.0875 -0.05
0.0625 0.0875 -0.05
0.075 0.0875 -0.05
0.0875 0.0875 -0.05
0.1 0.0875 -0.05
0.1125 0.0875 -0.05
0.125 0.0875 -0.05
0.1375 0.0875 -0.05
0.15 0.0875 -0.05
0.1625 0.0875 -0.05
0.175 0.0875 -0.05
0.1875 0.0875 -0.05
0.2 0.0875 -0.05
0.2125 0.0875 -0.05
0.225 0.0875 -0.05
0.2375 0.0875 -0.05
0.25 0.0875 -0.05
0.2625 0.0875 -0.05
0.275 0.0875 -0.05
0.2875 0.0875 -0.05
0.3 0.0875 -0.05
0.3125 0.0875 -0.05
0.325 0.0875 -0.05
0.3375 0.0875 -0.05
0.35 0.0875 -0.05
0.3625 0.0875 -0.05
0.375 0.0875 -0.05
0.3875 0.0875 -0.05
0.4 0.0875 -0.05
0.4125 0.0875 -0.05
0.425 0.0875 -0.05
0.4375 0.0875 -0.05
0.45 0.0875 -0.05
0.4625 0.0875 -0.05
0.475 0.0875 -0.05
0.4875 0.0875 -0.05
0.5 0.0875 -0.05
0.5125 0.0875 -0.05
0.525 0.0875 -0.05
0.5375 0.0875 -0.05
0.55 0.0875 -0.05
0.5625 0.0875 -0.05
0.575 0.0875 -0.05
0.5875 0.0875 -0.05
0.6 0.0875 -0.05
0.0 0.1 -0.05
0.0125 0.1 -0.05
0.025 0.1 -0.05
0.0375 0.1 -0.05
0.05 0.1 -0.05
0.0625 0.1 -0.05
0.075 0.1 -0.05
0.0875 0.1 -0.05
0.1 0.1 -0.05
0.1125 0.1 -0.05
0.125 0.1 -0.05
0.1375 0.1 -0.05
0.15 0.1 -0.05
0.1625 0.1 -0.05
0.175 0.1 -0.05
0.1875 0.1 -0.05
0.2 0.1 -0.05
0.2125 0.1 -0.05
0.225 0.1 -0.05
0.2375 0.1 -0.05
0.25 0.1 -0.05
0.2625 0.1 -0.05
0.275 0.1 -0.05
0.2875 0.1 -0.05
0.3 0.1 -0.05
0.3125 0.1 -0.05
0.325 0.1 -0.05
0.3375 0.1 -0.05
0.35 0.1 -0.05
0.3625 0.1 -0.05
0.375 0.1 -0.05
0.3875 0.1 -0.05
0.4 0.1 -0.05
0.4125 0.1 -0.05
0.425 0.1 -0.05
0.4375 0.1 -0.05
0.45 0.1 -0.05
0.4625 0.1 -0.05
0.475 0.1 -0.05
0.4875 0.1 -0.05
0.5 0.1 -0.05
0.5125 0.1 -0.05
0.525 0.1 -0.05
0.5375 0.1 -0.05
0.55 0.1 -0.05
0.5625 0.1 -0.05
0.575 0.1 -0.05
0.5875 0.1 -0.05
0.6 0.1 -0.05
0.0 0.1125 -0.05
0.0125 0.1125 -0.05
0.025 0.1125 -0.05
0.0375 0.1125 -0.05
0.05 0.1125 -0.05
0.0625 0.1125 -0.05
0.075 0.1125 -0.05
0.0875 0.1125 -0.05
0.1 0.1125 -0.05
0.1125 0.1125 -0.05
0.125 0.1125 -0.05
0.1375 0.1125 -0.05
0.15 0.1125 -0.05
0.1625 0.1125 -0.05
0.175 0.1125 -0.05
0.1875 0.1125 -0.05
0.2 0.1125 -0.05
0.2125 0.1125 -0.05
0.225 0.1125 -0.05
0.2375 0.1125 -0.05
0.25 0.1125 -0.05
0.2625 0.1125 -0.05
0.275 0.1125 -0.05
0.2875 0.1125 -0.05
0.3 0.1125 -0.05
0.3125 0.1125 -0.05
0.325 0.1125 -0.05
0.3375 0.1125 -0.05
0.35 0.1125 -0.05
0.3625 0.1125 -0.05
0.375 0.1125 -0.05
0.3875 0.1125 -0.05
0.4 0.1125 -0.05
0.4125 0.1125 -0.05
0.425 0.1125 -0.05
0.4375 0.1125 -0.05
0.45 0.1125 -0.05
0.4625 0.1125 -0.05
0.475 0.1125 -0.05
0.4875 0.1125 -0.05
0.5 0.1125 -0.05
0.5125 0.1125 -0.05
0.525 0.1125 -0.05
0.5375 0.1125 -0.05
0.55 0.1125 -0.05
0.5625 0.1125 -0.05
0.575 0.1125 -0.05
0.5875 0.1125 -0.05
0.6 0.1125 -0.05
0.0 0.125 -0.05
0.0125 0.125 -0.05
0.025 0.125 -0.05
0.0375 0.125 -0.05
0.05 0.125 -0.05
0.0625 0.125 -0.05
0.075 0.125 -0.05
0.0875 0.125 -0.05
0.1 0.125 -0.05
0.1125 0.125 -0.05
0.125 0.125 -0.05
0.1375 0.125 -0.05
0.15 0.125 -0.05
0.1625 0.125 -0.05
0.175 0.125 -0.05
0.1875 0.125 -0.05
0.2 0.125 -0.05
0.2125 0.125 -0.05
0.225 0.125 -0.05
0.2375 0.125 -0.05
0.25 0.125 -0.05
0.2625 0.125 -0.05
0.275 0.125 -0.05
0.2875 0.125 -0.05
0.3 0.125 -0.05
0.3125 0.125 -0.05
0.325 0.125 -0.05
0.3375 0.125 -0.05
0.35 0.125 -0.05
0.3625 0.125 -0.05
0.375 0.125 -0.05
0.3875 0.125 -0.05
0.4 0.125 -0.05
0.4125 0.125 -0.05
0.425 0.125 -0.05
0.4375 0.125 -0.05
0.45 0.125 -0.05
0.4625 0.125 -0.05
0.475 0.125 -0.05
0.4875 0.125 -0.05
0.5 0.125 -0.05
0.5125 0.125 -0.05
0.525 0.125 -0.05
0.5375 0.125 -0.05
0.55 0.125 -0.05
0.5625 0.125 -0.05
0.575 0.125 -0.05
0.5875 0.125 -0.05
0.6 0.125 -0.05
0.0 0.1375 -0.05
0.0125 0.1375 -0.05
0.025 0.1375 -0.05
0.0375 0.1375 -0.05
0.05 0.1375 -0.05
0.0625 0.1375 -0.05
0.075 0.1375 -0.05
0.0875 0.1375 -0.05
[...]
CELL_DATA 16128
SCALARS P float 1
LOOKUP_TABLE default
99999.9999991763
100000.00000184147
99999.99999662738
100000.00000631083
99999.99998909504
100000.0000178923
99999.99997311117
100000.00003592658
99999.9999610987
100000.0000236129
100000.00002860728
99999.99986675679
100000.00026598397
99999.99973626154
99999.99960313321
100000.00302494792
99999.98958920124
100000.0277073472
99999.93705549775
100000.12549191638
99999.78163847764
100000.31632887962
99999.68560263727
99999.92706583321
100001.49724963379
99994.76219678993
100013.60239654411
99969.89108446252
100059.868039509
99893.09117193884
100167.72665997273
99839.81708645141
99648.79656258116
103827.8714060957
82560.89492072594
248306.4173130121
833902.087429413
1.3383967262206525e6
1.3573010705369404e6
1.3067971165722543e6
1.338195771547741e6
1.3304926222639298e6
1.3293221228323271e6
1.332204102545865e6
1.3279615374393142e6
1.3281670327231402e6
1.3238466126570604e6
1.3271571076095465e6
99999.99999920336
100000.00000178671
99999.99999671543
100000.00000616544
99999.99998930791
100000.00001760754
99999.99997343014
100000.00003566986
99999.99996113764
100000.00002387805
100000.00002852842
99999.9998643314
100000.00027797942
99999.99969806262
99999.99970141693
100000.00281160556
99999.98998539167
100000.02711841051
99999.93760848262
100000.1259335419
99999.77768492616
100000.32942656598
99999.65348546936
99999.99254817174
100001.38869132742
99994.89711895048
100013.54883505398
99969.57501379811
100061.21346931659
99889.43032961509
100177.01049844881
99813.5762928408
99733.91558833368
103548.62539274132
83118.50158558873
243316.7027993138
827808.9081251258
1.3420621039802288e6
1.3682110496263183e6
1.316773590011282e6
1.3481557468034276e6
1.3400669631237066e6
1.3379019793998084e6
1.340123781202735e6
1.3353482760404437e6
1.3351598821977389e6
1.330570043957373e6
1.3338642183618199e6
99999.99999928627
100000.00000161343
99999.99999701761
100000.00000562391
99999.99999020656
100000.00001616428
99999.99997561549
100000.00003250492
99999.99996558236
100000.00001741585
100000.00003931334
99999.99984204184
100000.0003311525
99999.99956678842
100000.00001157013
100000.00212860541
99999.99135569361
100000.02465014195
99999.94140084658
100000.12155363252
99999.7788018244
100000.34262397668
99999.59925848691
100000.14176677645
100001.0447699305
99995.58789672331
100012.31202114136
99971.47804848543
100058.88441199022
99890.39802332068
100184.17159158694
99770.48245623503
99910.35402332577
102894.09219928861
84586.26179806713
227275.06841868785
798614.4515325224
1.3246943410878414e6
1.3647806202073107e6
1.3099470991139084e6
1.3404739161784106e6
1.3338786315956104e6
1.331666726296423e6
1.3343231598308792e6
1.3299155352081205e6
1.3298359821930367e6
1.325319514601934e6
1.328782978213136e6
99999.99999940167
100000.00000137187
99999.99999743773
100000.00000487268
99999.999991449
100000.00001418493
99999.99997856899
100000.00002834636
99999.99997115106
100000.00000988855
100000.00005117444
99999.99981741555
100000.00039370467
99999.99940276249
100000.00042031056
100000.00119365612
99999.99330428799
100000.02101908393
99999.94727914537
100000.1141163442
99999.78310349601
100000.35662786617
99999.52991662959
100000.34564080554
100000.56141566036
99996.58542334913
100010.50231451889
99974.33602175697
100055.26727012808
99892.65217379293
100191.95399123119
99716.77898766784
100148.06931398076
101940.35720000452
87126.52508427156
205321.03034803146
759507.7164333565
1.3077631516279026e6
1.3711881178930127e6
1.312200754432412e6
1.3418240322307115e6
1.3368571478976405e6
1.3338702183214896e6
1.3364688941937778e6
1.3320070308336557e6
1.3317164319449412e6
1.3270408302877983e6
1.3306552863024261e6
99999.9999995381
100000.00000108498
99999.99999793762
100000.00000397857
99999.99999292158
100000.0000118616
99999.99998196424
100000.00002375925
99999.99997679643
100000.00000331161
100000.00005991131
99999.99979911171
100000.00044730202
99999.99924194034
100000.0008583299
100000.00012240665
99999.99565173176
100000.01641186172
99999.95517869273
100000.10298461694
99999.79285864
100000.36492660003
99999.45897487823
100000.57726120233
99999.97774546743
99997.83920213078
100008.12735722598
99978.2554820445
100049.86175454612
99897.4131867215
100196.99876519224
99661.733362602
100418.60761805794
100748.25029539208
90928.94704616022
177967.20170330358
704568.6277623903
1.2775244942301207e6
1.3735410149264531e6
1.3097795772255207e6
1.3368035653147392e6
1.3341122242643556e6
1.3302965504822885e6
1.3329077293201317e6
1.328572231579665e6
1.3281337185369525e6
1.3233198117286349e6
1.3271843075158952e6
99999.99999968403
100000.00000077653
99999.99999847596
100000.00000301667
99999.9999945
100000.00000939872
99999.99998547438
100000.0000192854
99999.99998158538
99999.99999949739
100000.00006180204
99999.99979546278
100000.00047390851
99999.9991235499
100000.00124844446
99999.9990606455
99999.99816696974
100000.01114825987
99999.96488871597
100000.08781002699
99999.81049113121
100000.36056797445
99999.40366794958
100000.80360185613
99999.35151443907
99999.28003295315
100005.23196508332
99983.38948026464
100042.01026680025
99906.76838209179
100193.81368657468
99622.65668263087
100665.51934958946
99515.27366565102
95708.00970152213
148666.89998455613
637270.1840232995
1.2368184092303147e6
1.3772474887765916e6
1.3103886148720416e6
1.3336019430937928e6
1.3339231296317251e6
1.329273395080195e6
1.3318148506678212e6
1.3276210293185674e6
1.3270208180569021e6
1.3220068131031701e6
1.32622760114547e6
99999.99999982737
100000.00000047174
99999.99999901066
100000.00000205962
99999.99999606932
100000.0000069721
99999.9999888417
100000.0000152872
99999.99998496957
99999.99999939084
100000.00005469762
99999.99981175174
100000.00045969298
99999.99908048475
100000.0015152815
99999.99815973386
100000.00056699658
100000.00565719679
99999.97589542104
100000.06864366768
99999.83770473948
100000.33639107215
99999.38291132261
100000.98109795642
99998.76388280337
100000.77560380488
100001.96055628764
99989.70763505207
100031.1821552855
99922.7166448756
100176.40485264281
99617.31569259867
100825.88476338921
98493.26102086254
100704.06698429518
120686.86378032713
557949.313834922
1.1799350236478744e6
1.3768795333245322e6
1.3105961354380874e6
1.3274655411682206e6
1.3311198680633549e6
1.3255602123203708e6
1.3277168767162834e6
1.323558548791173e6
1.3226755359327183e6
1.3172720770338126e6
1.321946339614768e6
99999.99999995733
100000.00000019238
99999.99999950477
100000.00000116855
99999.99999753716
100000.00000470852
99999.99999192532
100000.00001187465
99999.99998697569
100000.00000275247
100000.00003897796
99999.99984860528
100000.00039960809
99999.99913274385
100000.0016021043
99999.99756165913
100000.00255223473
100000.00050860352
99999.98733178592
100000.0464545479
99999.87470937856
100000.2877252917
99999.4146536879
100001.062073702
99998.32409969963
100002.115972814
99998.66187575685
99996.78459601822
100017.57967572885
99946.23839759937
100140.29705937012
99660.51270149973
100843.62590206061
97937.39690826781
104675.66091328392
98115.27181863955
469764.1494175304
1.1049191333379876e6
1.3710523669472411e6
1.3127961124286836e6
1.3208098969304985e6
1.328196851021267e6
1.3221325460662057e6
1.3238637177350037e6
1.3199324577863552e6
1.3189623228415584e6
1.31322604676981e6
1.318595789187412e6
100000.00000006505
99999.99999995602
99999.99999993046
100000.00000038854
99999.99999884056
100000.00000267752
99999.99999469682
100000.00000890638
99999.99998817685
100000.00000808538
100000.00001768573
99999.99990089286
100000.00029954614
99999.99927968533
100000.00148343047
99999.99736552051
100000.00384204354
99999.99634269328
99999.9979156549
100000.02333811524
99999.91890822952
100000.21509567245
99999.50804431546
100001.00705384678
99998.14501116893
100003.02974624373
99995.89327597492
100003.61888281413
100002.65944860756
99975.80061313086
100085.52109603127
99756.75884585359
100692.72159847323
97994.47075954688
106408.35570322415
84492.97656844158
376610.24220923334
1.0087834656752322e6
1.354727486562422e6
1.3160457960187409e6
1.312235381457092e6
1.3227982365519004e6
1.3163406852474262e6
1.3170190606066214e6
1.3128656373451622e6
1.31143706925623e6
1.3048301713956543e6
1.310975508419161e6
100000.00000014581
99999.99999977286
100000.00000027011
99999.99999974921
99999.99999994287
100000.00000090653
99999.99999720251
100000.00000609747
99999.999989486
100000.00001307687
99999.99999596382
99999.99995859606
100000.00017673496
99999.99949764884
100000.00117877172
99999.99759847613
100000.00425450208
99999.99375217846
100000.0061679297
100000.00247572102
99999.96453423225
100000.12703087278
99999.65590189949
100000.80621876221
99998.30017394289
100003.27046355205
99994.30892175114
100008.73550737077
99989.37280990518
100006.20863077711
100020.32588724236
99892.38457962693
100399.54298583986
98617.75336278634
105468.31604595477
81453.64494780771
284310.06947609177
890885.0576961256
1.3227242680413665e6
1.3205211307230254e6
1.3031628805714834e6
1.3159699733097684e6
1.3100058294602195e6
1.309745145226368e6
1.3057762814766655e6
1.3044401912461605e6
1.297344393905662e6
1.3047397168060928e6
100000.00000019658
99999.9999996487
100000.0000005143
99999.9999992667
100000.00000082157
99999.99999940947
99999.99999948683
100000.00000318816
99999.99999176568
100000.00001536276
99999.99997950127
100000.00000922434
100000.00005590876
99999.99974252093
100000.00075436861
99999.99818881734
100000.00378234289
99999.99306639422
100000.01082512304
99999.98733558187
100000.00351923652
100000.03973532471
99999.8302808572
100000.49663156511
99998.76917774846
100002.74805632759
99994.36655391786
100010.70658537766
99981.38020030253
100029.2509122691
99961.9906602598
100031.34725123337
100054.50308636454
99536.08570640159
102697.44933421655
87348.5484589383
200290.92918056066
752573.7641763338
1.2673326005995146e6
1.3235061591901116e6
1.2931078413880945e6
1.3054898591221927e6
1.300085485005109e6
1.2978048611829854e6
1.2926896277158398e6
1.2902668375906653e6
1.2810582458657126e6
1.289550098548489e6
100000.00000022014
99999.99999958162
100000.00000066234
99999.9999989455
100000.00000146357
99999.99999821112
100000.00000153133
100000.00000011528
99999.99999542351
100000.00001347697
99999.999972594
100000.0000418158
99999.99996246336
99999.99996105618
100000.0003114095
99999.99896956018
100000.00264422016
99999.99416057846
100000.01141688017
99999.98036000782
100000.02826179887
99999.97257640601
99999.98821793863
100000.16238883234
99999.41100927349
100001.64382733987
99995.98717581335
100009.01229473972
99981.16914119486
100037.3032229542
99930.48853511219
100125.41634266349
99786.54235184383
100341.79549864033
99828.88571204107
97151.94916267467
133763.54624713506
599571.9530900745
1.1808942180653757e6
1.3211760656679606e6
1.2840135316224513e6
1.2929450055800166e6
1.2893432048256367e6
1.2857952742192678e6
1.2805562563149296e6
1.2784164271632272e6
1.26870356748016e6
1.2791480611862077e6
100000.00000021895
99999.99999956631
100000.00000071997
99999.99999878278
100000.00000185845
99999.99999735563
100000.0000032221
99999.99999709592
100000.0000001615
100000.00000750982
99999.99997641484
100000.00005085919
99999.99991371432
100000.00010760434
99999.99995579728
99999.99971994368
100000.00124768283
99999.99639655405
100000.00865164713
99999.9816143171
100000.0352137402
99999.93965868269
100000.08865563931
99999.90507729138
100000.00136740433
100000.39815334821
99998.41033725582
100004.68891431726
99987.99770087634
100028.52498253236
99936.32310187006
100139.77854294187
99696.9503578558
100704.62847495536
98281.38242932415
104447.50972995801
93380.85008671392
442039.44728663185
1.0566023417023784e6
1.3053435611075251e6
1.2752174783507837e6
1.275725191750796e6
1.272712658731684e6
1.265888467012065e6
1.2569302897224168e6
1.2513441919519547e6
1.2355557687267999e6
1.2465603927872023e6
100000.000000199
99999.99999959345
100000.00000069958
99999.99999876598
100000.00000200482
99999.99999688982
100000.00000439081
99999.99999456458
100000.00000504815
99999.99999916725
99999.99998845346
100000.00003858142
99999.9999123369
100000.00016119401
99999.9997600062
100000.00024384267
100000.00005243144
99999.9988172092
100000.00428887087
99999.9883888456
100000.02724353923
99999.94202371412
100000.11393638965
99999.79339444976
100000.3408867485
99999.51547865196
100000.49526995324
100000.09234113991
99997.49982214063
100009.92895671859
99970.37456127857
100080.42144069116
99794.10238578383
100552.9145040365
98413.43711212666
105534.96048076723
81692.68314706866
294829.2387233572
893163.8412265583
1.2658014825527049e6
1.2680324544005303e6
1.2573900847730562e6
1.2553306501898363e6
1.2472138601965006e6
1.2373176189773611e6
1.2314186450905201e6
1.2157147273424424e6
1.2271984597854267e6
100000.00000016698
99999.99999965067
100000.0000006193
99999.99999886975
100000.0000019238
99999.9999968291
100000.00000489785
99999.99999298091
100000.00000889957
99999.99999107962
100000.00000351234
100000.00001399402
99999.99994539734
100000.00013356438
99999.99973417624
100000.00044947099
99999.99937877366
100000.00055162921
100000.00038076547
99999.99634353373
100000.01251577018
99999.96632439434
100000.0803884279
99999.82237580136
100000.37073341542
99999.26501368667
100001.39123425998
99997.51932836686
100004.13182514747
99993.98911094829
100006.81761713042
99999.21795676133
99973.7443795313
100130.24664131698
99504.91042268965
102215.46206750047
90019.5221481847
175703.37419840868
696421.9339405673
1.1867221997620184e6
1.2570356237264592e6
1.2351888144035737e6
1.2293896995078917e6
1.21597576214151e6
1.1965604115359595e6
1.1795155611520568e6
1.1430833704282907e6
1.1472317369920898e6
100000.00000012874
99999.99999972421
100000.0000005017
99999.99999905867
100000.00000166311
99999.99999712965
100000.00000472061
99999.99999260563
100000.00001081178
99999.99998566533
100000.00001596997
99999.99998887352
99999.99999056882
100000.00006229969
99999.99982576769
100000.00038251957
99999.99927379459
100000.00121310029
99999.99827653849
100000.00178240986
99999.99999187562
99999.99295109768
100000.02752508843
99999.9204279387
100000.20281804942
99999.51870374683
100001.09115910988
99997.609537794
100005.11947234838
99989.32829803263
100021.98884082558
99955.88002596905
100090.02163059494
99817.20489873218
100408.25169620724
99090.25551502468
101881.61263102395
102815.86121654254
485433.4361193606
1.0541059072467778e6
1.2350563997538907e6
1.2142615722530838e6
1.203117965186676e6
1.1875530504732344e6
1.1655124587009267e6
1.1440270102183076e6
1.1094404876258038e6
1.0700018070770374e6
100000.0000000914
99999.99999980081
100000.00000037058
99999.99999928844
100000.00000129538
99999.9999976829
100000.0000039904
99999.99999336344
100000.00001055036
99999.99998412181
100000.00002214874
99999.99997257082
100000.00002664163
99999.99999134555
99999.99995147537
100000.000184957
99999.99953132763
100000.00100541972
99999.99805615256
100000.00344747528
99999.99440463429
100000.00804911897
99999.99081595661
100000.00401342803
100000.02146455074
99999.8982258441
100000.32502843255
99999.10485576167
100002.31813102934
99994.25574427212
100013.98963952907
99966.62195062872
100080.55517044714
99804.43811677954
100512.70717184193
98533.8363342425
105112.05811166542
82095.33927923403
290746.35845400754
860269.4433253284
1.1840860622112635e6
1.1914399085767744e6
1.1693232902659995e6
1.1446839497915606e6
1.1048275763916343e6
1.0502619809461297e6
948885.0394825161
774461.6364416583
100000.00000005892
99999.99999986986
100000.00000024648
99999.99999951702
100000.00000090105
99999.99999834328
100000.00000295213
99999.99999487896
100000.00000859445
99999.99998609428
100000.00002151771
99999.99996855174
100000.0000423601
99999.99995027736
100000.00004223081
100000.00000490654
99999.99985823822
100000.00046543464
99999.99884532622
100000.00253569598
99999.99482221526
100000.01007432214
99999.98109941641
100000.03439673161
99999.93900192628
100000.10491540194
99999.82655831068
100000.27055937631
99999.63361828559
100000.35689918902
100000.28549787002
99997.26370461767
100011.67938782477
99962.65122053704
100120.93998306208
99618.75930333028
101522.40795814559
93301.09938090932
149015.25065956134
617466.951844022
1.0803031362268582e6
1.1645723457033543e6
1.136349760062467e6
1.1043172455647693e6
1.0549521140352993e6
986888.7932349243
874416.4313159164
696954.1743497927
100000.00000003353
99999.99999992482
100000.00000014421
99999.9999997124
100000.00000054712
99999.99999897233
100000.00000187795
99999.99999664513
100000.00000583485
99999.9999901307
100000.00001617361
99999.99997444345
100000.00003861381
99999.99994502385
100000.00007157963
99999.9999208657
100000.00005467639
100000.00005220574
99999.99965120219
100000.00105123108
99999.99740268965
100000.00585961362
99999.98742719187
100000.02631076923
99999.9458107896
100000.11170472167
99999.76957336953
100000.4813828873
99998.9827788694
100002.18953628618
99995.23320731688
100010.59572204361
99976.22389570798
100056.0002213621
99865.17798448651
100367.72672197112
98905.47542863734
103919.18395059265
86946.25682481928
368408.32427415316
899781.4952870979
1.1187061449551284e6
1.1058153173596687e6
1.0672881477861006e6
1.0123767638574052e6
939195.7527110751
827105.259490031
675536.7899801745
100000.00000001611
99999.99999996368
100000.00000007066
99999.99999985697
100000.00000027551
99999.99999947498
100000.00000097512
99999.99999822657
100000.0000031487
99999.99999454353
100000.00000920746
99999.99998490716
100000.00002393118
99999.99996353811
100000.0000527802
99999.99992905813
100000.0000842357
99999.99992533206
100000.00000190588
100000.00022373947
99999.99921345245
100000.0020693897
99999.99513645144
100000.01075768091
99999.97683876133
100000.04905329851
99999.89606807003
100000.22226856697
99999.52068602803
100001.06885550755
99997.58724756227
100005.69880608952
99986.43952903405
100034.07461577225
99912.93046930654
100241.32154825667
99280.30355352265
102633.5129860007
89253.1657109483
176832.63264857922
642739.5641846863
1.0227153736591084e6
1.074434537312558e6
1.0352094252735418e6
977683.4892428567
904377.1301581784
798115.982173959
670129.2264105659
100000.00000000557
99999.99999998749
100000.0000000246
99999.99999995057
100000.0000000959
99999.99999981673
100000.00000034079
99999.99999938128
100000.00000109218
99999.99999812452
100000.00000312063
99999.99999498873
100000.00000771122
99999.99998875736
100000.00001517772
99999.99998192265
100000.00001615469
99999.99999860548
99999.99995649044
100000.00015089558
99999.99961604594
100000.00085667857
99999.99823630248
100000.003472481
99999.99353356542
100000.01167348027
99999.98022294004
100000.03162304412
99999.95548347707
100000.0449708632
100000.00737777282
99999.77542530464
100000.99696720611
99996.84471898172
100010.68531902242
99967.46914561086
100126.50415922656
99507.39870059224
102334.66787055448
90895.29102145489
365170.1719501172
837741.1351937494
1.0243801800574893e6
1.0073085241594067e6
950200.6652923856
879101.0540121176
781115.3841391639
670673.4051952553
99999.9999999996
100000.00000000047
99999.99999999975
100000.0000000012
99999.99999999658
100000.00000000988
99999.99999997298
100000.00000006895
99999.99999983062
100000.00000039893
99999.9999990953
100000.0000019848
99999.9999957792
100000.00000872418
99999.99998245017
100000.00003444967
99999.99993402892
100000.00012367223
99999.99977352687
100000.00040649681
99999.99928693761
100000.00122155677
99999.99796169167
100000.00326533456
99999.99500574956
100000.0068785698
99999.99234532916
100000.00282012264
100000.02116017192
99999.90205046572
100000.33453545021
99999.03072929873
100002.7465322416
99992.5766578932
100020.66268210343
99942.64593829414
100171.62135343261
99450.57337367894
102109.83831204263
90955.36426456299
162004.69975445885
562629.252925878
912956.8321568507
975538.0243376225
928493.5460945041
861060.0021131568
771821.3557029902
674341.9894008513
99999.99999999764
100000.00000000528
99999.99999998952
100000.0000000228
99999.99999995364
100000.00000009434