# vtk DataFile Version 2.0
JuliaCFD
ASCII
DATASET UNSTRUCTURED_GRID

POINTS 32898 float
0.0 0.0 -0.05
0.0125 0.0 -0.05
0.025 0.0 -0.05
0.0375 0.0 -0.05
0.05 0.0 -0.05
0.0625 0.0 -0.05
0.075 0.0 -0.05
0.0875 0.0 -0.05
0.1 0.0 -0.05
0.1125 0.0 -0.05
0.125 0.0 -0.05
0.1375 0.0 -0.05
0.15 0.0 -0.05
0.1625 0.0 -0.05
0.175 0.0 -0.05
0.1875 0.0 -0.05
0.2 0.0 -0.05
0.2125 0.0 -0.05
0.225 0.0 -0.05
0.2375 0.0 -0.05
0.25 0.0 -0.05
0.2625 0.0 -0.05
0.275 0.0 -0.05
0.2875 0.0 -0.05
0.3 0.0 -0.05
0.3125 0.0 -0.05
0.325 0.0 -0.05
0.3375 0.0 -0.05
0.35 0.0 -0.05
0.3625 0.0 -0.05
0.375 0.0 -0.05
0.3875 0.0 -0.05
0.4 0.0 -0.05
0.4125 0.0 -0.05
0.425 0.0 -0.05
0.4375 0.0 -0.05
0.45 0.0 -0.05
0.4625 0.0 -0.05
0.475 0.0 -0.05
0.4875 0.0 -0.05
0.5 0.0 -0.05
0.5125 0.0 -0.05
0.525 0.0 -0.05
0.5375 0.0 -0.05
0.55 0.0 -0.05
0.5625 0.0 -0.05
0.575 0.0 -0.05
0.5875 0.0 -0.05
0.6 0.0 -0.05
0.0 0.0125 -0.05
0.0125 0.0125 -0.05
0.025 0.0125 -0.05
0.0375 0.0125 -0.05
0.05 0.0125 -0.05
0.0625 0.0125 -0.05
0.075 0.0125 -0.05
0.0875 0.0125 -0.05
0.1 0.0125 -0.05
0.1125 0.0125 -0.05
0.125 0.0125 -0.05
0.1375 0.0125 -0.05
0.15 0.0125 -0.05
0.1625 0.0125 -0.05
0.175 0.0125 -0.05
0.1875 0.0125 -0.05
0.2 0.0125 -0.05
0.2125 0.0125 -0.05
0.225 0.0125 -0.05
0.2375 0.0125 -0.05
0.25 0.0125 -0.05
0.2625 0.0125 -0.05
0.275 0.0125 -0.05
0.2875 0.0125 -0.05
0.3 0.0125 -0.05
0.3125 0.0125 -0.05
0.325 0.0125 -0.05
0.3375 0.0125 -0.05
0.35 0.0125 -0.05
0.3625 0.0125 -0.05
0.375 0.0125 -0.05
0.3875 0.0125 -0.05
0.4 0.0125 -0.05
0.4125 0.0125 -0.05
0.425 0.0125 -0.05
0.4375 0.0125 -0.05
0.45 0.0125 -0.05
0.4625 0.0125 -0.05
0.475 0.0125 -0.05
0.4875 0.0125 -0.05
0.5 0.0125 -0.05
0.5125 0.0125 -0.05
0.525 0.0125 -0.05
0.5375 0.0125 -0.05
0.55 0.0125 -0.05
0.5625 0.0125 -0.05
0.575 0.0125 -0.05
0.5875 0.0125 -0.05
0.6 0.0125 -0.05
0.0 0.025 -0.05
0.0125 0.025 -0.05
0.025 0.025 -0.05
0.0375 0.025 -0.05
0.05 0.025 -0.05
0.0625 0.025 -0.05
0.075 0.025 -0.05
0.0875 0.025 -0.05
0.1 0.025 -0.05
0.1125 0.025 -0.05
0.125 0.025 -0.05
0.1375 0.025 -0.05
0.15 0.025 -0.05
0.1625 0.025 -0.05
0.175 0.025 -0.05
0.1875 0.025 -0.05
0.2 0.025 -0.05
0.2125 0.025 -0.05
0.225 0.025 -0.05
0.2375 0.025 -0.05
0.25 0.025 -0.05
0.2625 0.025 -0.05
0.275 0.025 -0.05
0.2875 0.025 -0.05
0.3 0.025 -0.05
0.3125 0.025 -0.05
0.325 0.025 -0.05
0.3375 0.025 -0.05
0.35 0.025 -0.05
0.3625 0.025 -0.05
0.375 0.025 -0.05
0.3875 0.025 -0.05
0.4 0.025 -0.05
0.4125 0.025 -0.05
0.425 0.025 -0.05
0.4375 0.025 -0.05
0.45 0.025 -0.05
0.4625 0.025 -0.05
0.475 0.025 -0.05
0.4875 0.025 -0.05
0.5 0.025 -0.05
0.5125 0.025 -0.05
0.525 0.025 -0.05
0.5375 0.025 -0.05
0.55 0.025 -0.05
0.5625 0.025 -0.05
0.575 0.025 -0.05
0.5875 0.025 -0.05
0.6 0.025 -0.05
0.0 0.0375 -0.05
0.0125 0.0375 -0.05
0.025 0.0375 -0.05
0.0375 0.0375 -0.05
0.05 0.0375 -0.05
0.0625 0.0375 -0.05
0.075 0.0375 -0.05
0.0875 0.0375 -0.05
0.1 0.0375 -0.05
0.1125 0.0375 -0.05
0.125 0.0375 -0.05
0.1375 0.0375 -0.05
0.15 0.0375 -0.05
0.1625 0.0375 -0.05
0.175 0.0375 -0.05
0.1875 0.0375 -0.05
0.2 0.0375 -0.05
0.2125 0.0375 -0.05
0.225 0.0375 -0.05
0.2375 0.0375 -0.05
0.25 0.0375 -0.05
0.2625 0.0375 -0.05
0.275 0.0375 -0.05
0.2875 0.0375 -0.05
0.3 0.0375 -0.05
0.3125 0.0375 -0.05
0.325 0.0375 -0.05
0.3375 0.0375 -0.05
0.35 0.0375 -0.05
0.3625 0.0375 -0.05
0.375 0.0375 -0.05
0.3875 0.0375 -0.05
0.4 0.0375 -0.05
0.4125 0.0375 -0.05
0.425 0.0375 -0.05
0.4375 0.0375 -0.05
0.45 0.0375 -0.05
0.4625 0.0375 -0.05
0.475 0.0375 -0.05
0.4875 0.0375 -0.05
0.5 0.0375 -0.05
0.5125 0.0375 -0.05
0.525 0.0375 -0.05
0.5375 0.0375 -0.05
0.55 0.0375 -0.05
0.5625 0.0375 -0.05
0.575 0.0375 -0.05
0.5875 0.0375 -0.05
0.6 0.0375 -0.05
0.0 0.05 -0.05
0.0125 0.05 -0.05
0.025 0.05 -0.05
0.0375 0.05 -0.05
0.05 0.05 -0.05
0.0625 0.05 -0.05
0.075 0.05 -0.05
0.0875 0.05 -0.05
0.1 0.05 -0.05
0.1125 0.05 -0.05
0.125 0.05 -0.05
0.1375 0.05 -0.05
0.15 0.05 -0.05
0.1625 0.05 -0.05
0.175 0.05 -0.05
0.1875 0.05 -0.05
0.2 0.05 -0.05
0.2125 0.05 -0.05
0.225 0.05 -0.05
0.2375 0.05 -0.05
0.25 0.05 -0.05
0.2625 0.05 -0.05
0.275 0.05 -0.05
0.2875 0.05 -0.05
0.3 0.05 -0.05
0.3125 0.05 -0.05
0.325 0.05 -0.05
0.3375 0.05 -0.05
0.35 0.05 -0.05
0.3625 0.05 -0.05
0.375 0.05 -0.05
0.3875 0.05 -0.05
0.4 0.05 -0.05
0.4125 0.05 -0.05
0.425 0.05 -0.05
0.4375 0.05 -0.05
0.45 0.05 -0.05
0.4625 0.05 -0.05
0.475 0.05 -0.05
0.4875 0.05 -0.05
0.5 0.05 -0.05
0.5125 0.05 -0.05
0.525 0.05 -0.05
0.5375 0.05 -0.05
0.55 0.05 -0.05
0.5625 0.05 -0.05
0.575 0.05 -0.05
0.5875 0.05 -0.05
0.6 0.05 -0.05
0.0 0.0625 -0.05
0.0125 0.0625 -0.05
0.025 0.0625 -0.05
0.0375 0.0625 -0.05
0.05 0.0625 -0.05
0.0625 0.0625 -0.05
0.075 0.0625 -0.05
0.0875 0.0625 -0.05
0.1 0.0625 -0.05
0.1125 0.0625 -0.05
0.125 0.0625 -0.05
0.1375 0.0625 -0.05
0.15 0.0625 -0.05
0.1625 0.0625 -0.05
0.175 0.0625 -0.05
0.1875 0.0625 -0.05
0.2 0.0625 -0.05
0.2125 0.0625 -0.05
0.225 0.0625 -0.05
0.2375 0.0625 -0.05
0.25 0.0625 -0.05
0.2625 0.0625 -0.05
0.275 0.0625 -0.05
0.2875 0.0625 -0.05
0.3 0.0625 -0.05
0.3125 0.0625 -0.05
0.325 0.0625 -0.05
0.3375 0.0625 -0.05
0.35 0.0625 -0.05
0.3625 0.0625 -0.05
0.375 0.0625 -0.05
0.3875 0.0625 -0.05
0.4 0.0625 -0.05
0.4125 0.0625 -0.05
0.425 0.0625 -0.05
0.4375 0.0625 -0.05
0.45 0.0625 -0.05
0.4625 0.0625 -0.05
0.475 0.0625 -0.05
0.4875 0.0625 -0.05
0.5 0.0625 -0.05
0.5125 0.0625 -0.05
0.525 0.0625 -0.05
0.5375 0.0625 -0.05
0.55 0.0625 -0.05
0.5625 0.0625 -0.05
0.575 0.0625 -0.05
0.5875 0.0625 -0.05
0.6 0.0625 -0.05
0.0 0.075 -0.05
0.0125 0.075 -0.05
0.025 0.075 -0.05
0.0375 0.075 -0.05
0.05 0.075 -0.05
0.0625 0.075 -0.05
0.075 0.075 -0.05
0.0875 0.075 -0.05
0.1 0.075 -0.05
0.1125 0.075 -0.05
0.125 0.075 -0.05
0.1375 0.075 -0.05
0.15 0.075 -0.05
0.1625 0.075 -0.05
0.175 0.075 -0.05
0.1875 0.075 -0.05
0.2 0.075 -0.05
0.2125 0.075 -0.05
0.225 0.075 -0.05
0.2375 0.075 -0.05
0.25 0.075 -0.05
0.2625 0.075 -0.05
0.275 0.075 -0.05
0.2875 0.075 -0.05
0.3 0.075 -0.05
0.3125 0.075 -0.05
0.325 0.075 -0.05
0.3375 0.075 -0.05
0.35 0.075 -0.05
0.3625 0.075 -0.05
0.375 0.075 -0.05
0.3875 0.075 -0.05
0.4 0.075 -0.05
0.4125 0.075 -0.05
0.425 0.075 -0.05
0.4375 0.075 -0.05
0.45 0.075 -0.05
0.4625 0.075 -0.05
0.475 0.075 -0.05
0.4875 0.075 -0.05
0.5 0.075 -0.05
0.5125 0.075 -0.05
0.525 0.075 -0.05
0.5375 0.075 -0.05
0.55 0.075 -0.05
0.5625 0.075 -0.05
0.575 0.075 -0.05
0.5875 0.075 -0.05
0.6 0.075 -0.05
0.0 0.0875 -0.05
0.0125 0.0875 -0.05
0.025 0.0875 -0.05
0.0375 0.0875 -0.05
0.05 0.0875 -0.05
0.0625 0.0875 -0.05
0.075 0.0875 -0.05
0.0875 0.0875 -0.05
0.1 0.0875 -0.05
0.1125 0.0875 -0.05
0.125 0.0875 -0.05
0.1375 0.0875 -0.05
0.15 0.0875 -0.05
0.1625 0.0875 -0.05
0.175 0.0875 -0.05
0.1875 0.0875 -0.05
0.2 0.0875 -0.05
0.2125 0.0875 -0.05
0.225 0.0875 -0.05
0.2375 0.0875 -0.05
0.25 0.0875 -0.05
0.2625 0.0875 -0.05
0.275 0.0875 -0.05
0.2875 0.0875 -0.05
0.3 0.0875 -0.05
0.3125 0.0875 -0.05
0.325 0.0875 -0.05
0.3375 0.0875 -0.05
0.35 0.0875 -0.05
0.3625 0.0875 -0.05
0.375 0.0875 -0.05
0.3875 0.0875 -0.05
0.4 0.0875 -0.05
0.4125 0.0875 -0.05
0.425 0.0875 -0.05
0.4375 0.0875 -0.05
0.45 0.0875 -0.05
0.4625 0.0875 -0.05
0.475 0.0875 -0.05
0.4875 0.0875 -0.05
0.5 0.0875 -0.05
0.5125 0.0875 -0.05
0.525 0.0875 -0.05
0.5375 0.0875 -0.05
0.55 0.0875 -0.05
0.5625 0.0875 -0.05
0.575 0.0875 -0.05
0.5875 0.0875 -0.05
0.6 0.0875 -0.05
0.0 0.1 -0.05
0.0125 0.1 -0.05
0.025 0.1 -0.05
0.0375 0.1 -0.05
0.05 0.1 -0.05
0.0625 0.1 -0.05
0.075 0.1 -0.05
0.0875 0.1 -0.05
0.1 0.1 -0.05
0.1125 0.1 -0.05
0.125 0.1 -0.05
0.1375 0.1 -0.05
0.15 0.1 -0.05
0.1625 0.1 -0.05
0.175 0.1 -0.05
0.1875 0.1 -0.05
0.2 0.1 -0.05
0.2125 0.1 -0.05
0.225 0.1 -0.05
0.2375 0.1 -0.05
0.25 0.1 -0.05
0.2625 0.1 -0.05
0.275 0.1 -0.05
0.2875 0.1 -0.05
0.3 0.1 -0.05
0.3125 0.1 -0.05
0.325 0.1 -0.05
0.3375 0.1 -0.05
0.35 0.1 -0.05
0.3625 0.1 -0.05
0.375 0.1 -0.05
0.3875 0.1 -0.05
0.4 0.1 -0.05
0.4125 0.1 -0.05
0.425 0.1 -0.05
0.4375 0.1 -0.05
0.45 0.1 -0.05
0.4625 0.1 -0.05
0.475 0.1 -0.05
0.4875 0.1 -0.05
0.5 0.1 -0.05
0.5125 0.1 -0.05
0.525 0.1 -0.05
0.5375 0.1 -0.05
0.55 0.1 -0.05
0.5625 0.1 -0.05
0.575 0.1 -0.05
0.5875 0.1 -0.05
0.6 0.1 -0.05
0.0 0.1125 -0.05
0.0125 0.1125 -0.05
0.025 0.1125 -0.05
0.0375 0.1125 -0.05
0.05 0.1125 -0.05
0.0625 0.1125 -0.05
0.075 0.1125 -0.05
0.0875 0.1125 -0.05
0.1 0.1125 -0.05
0.1125 0.1125 -0.05
0.125 0.1125 -0.05
0.1375 0.1125 -0.05
0.15 0.1125 -0.05
0.1625 0.1125 -0.05
0.175 0.1125 -0.05
0.1875 0.1125 -0.05
0.2 0.1125 -0.05
0.2125 0.1125 -0.05
0.225 0.1125 -0.05
0.2375 0.1125 -0.05
0.25 0.1125 -0.05
0.2625 0.1125 -0.05
0.275 0.1125 -0.05
0.2875 0.1125 -0.05
0.3 0.1125 -0.05
0.3125 0.1125 -0.05
0.325 0.1125 -0.05
0.3375 0.1125 -0.05
0.35 0.1125 -0.05
0.3625 0.1125 -0.05
0.375 0.1125 -0.05
0.3875 0.1125 -0.05
0.4 0.1125 -0.05
0.4125 0.1125 -0.05
0.425 0.1125 -0.05
0.4375 0.1125 -0.05
0.45 0.1125 -0.05
0.4625 0.1125 -0.05
0.475 0.1125 -0.05
0.4875 0.1125 -0.05
0.5 0.1125 -0.05
0.5125 0.1125 -0.05
0.525 0.1125 -0.05
0.5375 0.1125 -0.05
0.55 0.1125 -0.05
0.5625 0.1125 -0.05
0.575 0.1125 -0.05
0.5875 0.1125 -0.05
0.6 0.1125 -0.05
0.0 0.125 -0.05
0.0125 0.125 -0.05
0.025 0.125 -0.05
0.0375 0.125 -0.05
0.05 0.125 -0.05
0.0625 0.125 -0.05
0.075 0.125 -0.05
0.0875 0.125 -0.05
0.1 0.125 -0.05
0.1125 0.125 -0.05
0.125 0.125 -0.05
0.1375 0.125 -0.05
0.15 0.125 -0.05
0.1625 0.125 -0.05
0.175 0.125 -0.05
0.1875 0.125 -0.05
0.2 0.125 -0.05
0.2125 0.125 -0.05
0.225 0.125 -0.05
0.2375 0.125 -0.05
0.25 0.125 -0.05
0.2625 0.125 -0.05
0.275 0.125 -0.05
0.2875 0.125 -0.05
0.3 0.125 -0.05
0.3125 0.125 -0.05
0.325 0.125 -0.05
0.3375 0.125 -0.05
0.35 0.125 -0.05
0.3625 0.125 -0.05
0.375 0.125 -0.05
0.3875 0.125 -0.05
0.4 0.125 -0.05
0.4125 0.125 -0.05
0.425 0.125 -0.05
0.4375 0.125 -0.05
0.45 0.125 -0.05
0.4625 0.125 -0.05
0.475 0.125 -0.05
0.4875 0.125 -0.05
0.5 0.125 -0.05
0.5125 0.125 -0.05
0.525 0.125 -0.05
0.5375 0.125 -0.05
0.55 0.125 -0.05
0.5625 0.125 -0.05
0.575 0.125 -0.05
0.5875 0.125 -0.05
0.6 0.125 -0.05
0.0 0.1375 -0.05
0.0125 0.1375 -0.05
0.025 0.1375 -0.05
0.0375 0.1375 -0.05
0.05 0.1375 -0.05
0.0625 0.1375 -0.05
0.075 0.1375 -0.05
0.0875 0.1375 -0.05
[...]
CELL_DATA 16128
SCALARS P float 1
LOOKUP_TABLE default
99999.98365753902
100000.02675871187
99999.95646082402
100000.07120950082
99999.88406840598
100000.18929420071
99999.69180802008
100000.50228575288
99999.18314394189
100001.32756210578
99997.84840021167
100003.47596144715
99994.41831753594
100008.87639517855
99986.12775299617
100020.99635828895
99970.21277861434
100036.26105040858
99975.38609410371
99943.28661518516
100370.127918651
98621.65994420512
104603.80069301819
86405.93051332961
149130.64082975106
556564.6515474527
974306.7156817584
1.0578546399541837e6
1.0575421019902658e6
1.0721512195962635e6
1.0827529412844307e6
1.0938519184946315e6
1.1042477646146854e6
1.1142744647289782e6
1.1238148436915183e6
1.132919819705498e6
1.1415241030623782e6
1.149688577688847e6
1.1572570209923012e6
1.164422852697563e6
1.1707558526425972e6
1.1768924322739698e6
1.1815958039450713e6
1.1868900594250641e6
1.1890907280494145e6
1.1945131399152703e6
1.1919506650274948e6
1.2009374658176585e6
99999.98387183787
100000.02635290253
99999.95717579965
100000.06988020755
99999.88645549347
100000.18490792147
99999.69972575112
100000.48791120529
99999.20891834189
100001.28158481754
99997.92923391456
100003.33602158098
99994.65481378791
100008.48968754846
99986.72824357229
100020.14175664872
99971.22492038873
100035.64010926397
99973.77576334894
99952.281399863
100339.96510586329
98705.35292306507
104374.85672609488
86914.24019077179
147275.50431270603
553389.6577481985
975252.7743936181
1.0623500003919362e6
1.0624727415999074e6
1.0775572418146187e6
1.0883550586442873e6
1.0995839393019595e6
1.1100730548935588e6
1.1201860895609348e6
1.1298161900535906e6
1.1390181819060738e6
1.1477267719129086e6
1.1560011819326445e6
1.16368182018543e6
1.1709589954853621e6
1.1773965537642792e6
1.1836286234572257e6
1.1884072898430396e6
1.1937629898628083e6
1.195981265648442e6
1.2014294271289383e6
1.1987763380689833e6
1.2078619519330948e6
99999.98423994448
100000.0258126491
99999.95803223967
100000.06860712115
99999.88834629366
100000.18221730801
99999.70336271236
100000.4834150619
99999.2134476056
100001.27952887314
99997.92224648793
100003.36724400766
99994.56528076729
100008.71125315611
99986.21518073378
100021.29017037626
99968.67875248447
100041.30026748143
99960.90850144239
99982.18925810272
100266.90825843552
98885.42604498836
103879.38005494716
88131.20646038269
142084.84565992941
541366.1922578586
966850.2117183644
1.059257933497587e6
1.058580093857945e6
1.073435635089616e6
1.0840058933645994e6
1.0950476389644132e6
1.1053659442254056e6
1.115310397408739e6
1.1247701105578514e6
1.133796918107245e6
1.142326923497118e6
1.1504200342037475e6
1.1579214426361409e6
1.1650218549680375e6
1.1712944465435513e6
1.177369521225749e6
1.1820167710171582e6
1.1872536367611433e6
1.1893899701878645e6
1.1947879096864501e6
1.1920578120479868e6
1.2013001758203567e6
99999.9847858507
100000.0249971833
99999.95933126185
100000.06663341679
99999.89134369181
100000.1777737353
99999.70975955714
100000.47454872807
99999.22488864789
100001.26646354674
99997.9328515292
100003.37021395567
99994.52093150829
100008.86191412048
99985.8067094202
100022.30839700488
99966.202240476
100047.3071795971
99946.00427019237
100019.8076838765
100167.86241239755
99145.45919185027
103136.36647052442
90031.22360176178
134579.43739856378
524282.7042924012
957331.0421409837
1.0592221421338848e6
1.0581038606596154e6
1.0731669009877786e6
1.083799573614088e6
1.0948697211259631e6
1.1051952501638671e6
1.1151334484961007e6
1.1245842830827762e6
1.1336037849048795e6
1.1421329101492802e6
1.1502328475876204e6
1.1577522555289168e6
1.1648796518603612e6
1.1711926830555182e6
1.1773135442714267e6
1.182018450015786e6
1.187311274901031e6
1.189496588321367e6
1.1949645175589684e6
1.1921722661686502e6
1.2016665761266856e6
99999.98553338605
100000.02383528183
99999.9611989253
100000.06369342777
99999.8959578622
100000.17058096093
99999.72081910109
100000.45770713715
99999.24999316638
100001.22989042773
99997.98391958185
100003.30363641102
99994.59528713567
100008.81290123535
99985.72430029516
100022.82353299166
99964.40851076518
100052.67890949844
99930.59785254889
100062.78618628594
100046.61347316502
99479.85964235611
102161.85523508789
92624.24118714224
125092.39802292666
500899.23045385093
942726.1710579502
1.0573440214252167e6
1.0554167093459552e6
1.0703092714233063e6
1.0807491701533212e6
1.0916175539168462e6
1.101752392074463e6
1.1114959466528485e6
1.1207523898949872e6
1.1295752699031678e6
1.1379079996306368e6
1.145811415284847e6
1.153138776346223e6
1.16007646880186e6
1.1662113228653518e6
1.1721574829234479e6
1.176708469547035e6
1.1818536010496493e6
1.1839111685415152e6
1.1893040545388514e6
1.186334241079497e6
1.1960893488173087e6
99999.98649218469
100000.02228419264
99999.96371149503
100000.0596143621
99999.90252924341
100000.15995778558
99999.73786299638
100000.43035811328
99999.29354798829
100001.16087397089
99998.09196988781
100003.13726395588
99994.84337231827
100008.46460400746
99986.14834968078
100022.50730954923
99963.9043802155
100056.26807987246
99916.95016969027
100106.50413812521
99913.32294789136
99866.81125604438
101014.98552406927
95815.00418860835
114400.71214480304
471967.1875285789
923809.6952424558
1.0554057598094332e6
1.0530771586405674e6
1.0678569413274531e6
1.078230836128457e6
1.0889771480885362e6
1.098993001572547e6
1.1086029366738219e6
1.1177231650109664e6
1.1264080878780745e6
1.1346070575154943e6
1.142382792160794e6
1.1495953105727115e6
1.156430050735579e6
1.1624842100788662e6
1.1683636422122882e6
1.1728768096464404e6
1.177997337873341e6
1.180040586006111e6
1.1854773723761386e6
1.182380249463891e6
1.192510604126203e6
99999.98764331233
100000.02036383716
99999.96683829522
100000.05442828411
99999.91102816538
100000.14590540227
99999.76097469527
100000.39221030187
99999.35632535342
100001.05759732306
99998.26106786825
100002.86225939434
99995.28423394322
100007.77598364264
99987.16830386741
100021.1623297296
99965.1356738512
100057.05319645727
99907.47166239073
100145.24559966577
99782.10850744712
100272.60774338344
99787.04188053547
99416.538322525
103308.16393846796
437666.4182104407
899346.3876825285
1.052224446856734e6
1.050034542140634e6
1.0644238006023336e6
1.0746498603123473e6
1.0851557124373764e6
1.0949483048660676e6
1.10431839775535e6
1.1131945312434335e6
1.1216283611651175e6
1.1295732428967617e6
1.1370914827550426e6
1.1440481670165786e6
1.150625499241985e6
1.1564299317039403e6
1.1620576727904025e6
1.1663338110011455e6
1.1712223596099922e6
1.1730408431837575e6
1.1783458838164208e6
1.1749422670687283e6
1.1854664266808373e6
99999.98893577588
100000.01816594863
99999.97042694713
100000.04840212877
99999.92100071101
100000.12920978264
99999.78880883635
100000.34557205332
99999.43440067142
100000.92667719597
99998.48024753631
100002.49633905994
99995.8905058534
100006.78602556791
99988.73818783245
100018.81422900774
99968.19757990653
100054.51981766359
99903.98346388462
100173.51501759328
99668.99455113745
100653.0567117927
98603.95882814495
103095.94477517094
92802.02810441902
398647.02597193327
868769.7350720972
1.0476555345185141e6
1.0468434271172847e6
1.0606098589020788e6
1.0707404184402467e6
1.0809956630140163e6
1.0905618567591065e6
1.099682066622146e6
1.1083016835776952e6
1.1164703233059763e6
1.1241475279627622e6
1.1313977184708396e6
1.1380947492121784e6
1.1444222611787498e6
1.1500020565127006e6
1.1554270081690934e6
1.1595440467529965e6
1.1643104696284928e6
1.166034723018964e6
1.1713608567794682e6
1.167743328673412e6
1.1788214351107078e6
99999.9902946266
100000.01583802464
99999.97423005394
100000.04198931961
99999.93165093238
100000.11130040257
99999.8188245325
100000.29497631287
99999.51972044955
100000.78237883255
99998.72439413688
100002.0833303841
99996.58673940672
100005.62189078574
99990.65124189784
100015.77856577741
99972.67189537777
100049.03017824018
99906.90764470758
100187.69746451505
99588.53807896619
100959.479690301
97612.55105827533
106382.71189155361
83954.83864178254
355731.80300977273
831197.820476287
1.0408572075001405e6
1.0434027757484643e6
1.0561469173814494e6
1.0661819230069907e6
1.0761119849453017e6
1.0853861858976476e6
1.0941832077122922e6
1.1024668361379665e6
1.1102818436467096e6
1.1175910799306638e6
1.1244570443067006e6
1.1307565727645687e6
1.1366677093286926e6
1.141817361783432e6
1.1467871640707578e6
1.1504328923646866e6
1.1547149992355634e6
1.1559221080991817e6
1.1608814903943436e6
1.1566209648293967e6
1.16823644510657e6
99999.99163851132
100000.01354605214
99999.97796774453
100000.03571170043
99999.94204909442
100000.09387422522
99999.84795020592
100000.24600946392
99999.60213879154
100000.64312246295
99998.9601342518
100001.68347534885
99997.26485399023
100004.47550470651
99992.57238757922
100012.62340489194
99977.64677579403
100041.89130435426
99914.89398437247
100187.27239854613
99550.2431602289
101148.17190685633
96956.5718963406
108728.00730678327
77832.64891854137
310096.55964403215
785910.4247807076
1.0309113022592118e6
1.0398818158683539e6
1.051149784252566e6
1.0611252446998025e6
1.0706858660439958e6
1.0796303849173437e6
1.0880594188170577e6
1.095957451469982e6
1.103364827790401e6
1.110249451757283e6
1.116675433888868e6
1.1225289242215331e6
1.1279924388436698e6
1.132713612013578e6
1.137281075663197e6
1.1405845613912703e6
1.1445965996970178e6
1.1455996450872717e6
1.150549725332019e6
1.145978873440198e6
1.1584259311329105e6
99999.99290092298
100000.01142744087
99999.98140766451
100000.03000503729
99999.95141135226
100000.07837590696
99999.87353561087
100000.2035636283
99999.67261109168
100000.52566214296
99999.15640571083
100001.35432061629
99997.81848581955
100003.54230521635
99994.14609447856
100009.98303107887
99982.02682469567
100034.87141961993
99925.45833486486
100174.32896046496
99557.4747648986
101188.17973702666
96752.58307057778
109600.45908093074
75317.74221458132
263249.0841702058
732343.3181950452
1.0165189094164436e6
1.0362928457893691e6
1.0455934370395016e6
1.0555217344677863e6
1.0646549355258166e6
1.0732111470775905e6
1.0812042326748187e6
1.0886375107476243e6
1.0955435593370113e6
1.1018894820805488e6
1.1077326543837178e6
1.1129544300223847e6
1.1177231339981856e6
1.1216752247271074e6
1.1253757888341881e6
1.127690149045725e6
1.1306031501294568e6
1.1303101192920501e6
1.1341469868624916e6
1.1279352837527015e6
1.1409788369083048e6
99999.99404727979
100000.0095511516
99999.98443395409
100000.02508253226
99999.95935418615
100000.06551199067
99999.89427105649
100000.17009359869
99999.72649590488
100000.43884123467
99999.29625134912
100001.1285229458
99998.18457861608
100002.94393607661
99995.13843904702
100008.30227746793
99984.97825018711
100029.47490531509
99936.00790076755
100152.7122333176
99605.7825362482
101076.86466983496
97025.99832666558
108872.3034067975
76769.51163056977
216966.4806990911
670298.1219139716
996105.7236827108
1.0325864107921179e6
1.0395472345394142e6
1.049411808327628e6
1.0580724380932269e6
1.0661863845293205e6
1.0736836728799245e6
1.0805836417807394e6
1.0869118734254548e6
1.0926360318501284e6
1.0978114721202562e6
1.102325448631971e6
1.1063506531747743e6
1.1095488400898983e6
1.1125045373967714e6
1.11414615795542e6
1.1164941667964545e6
1.1158068571802066e6
1.1195071536316774e6
1.1129500954509466e6
1.127104310447741e6
99999.99508063046
100000.00790190649
99999.98707587422
100000.02087455982
99999.96601474527
100000.05500709469
99999.91067906063
100000.14462709575
99999.76554358253
100000.37961003727
99999.38476237595
100000.99808991318
99998.37442676103
100002.66771944171
99995.55357117782
100007.61729956348
99986.33023931763
100026.24804668025
99944.95583947477
100126.59643192154
99684.02749787095
100842.77666611757
97701.48271180868
106761.24902926444
81914.92761554307
173340.50519706978
600125.4021616882
967796.3731506856
1.0284726914676161e6
1.0330933625740564e6
1.0428021619287494e6
1.05095110441353e6
1.05856021426801e6
1.0654926652571592e6
1.0717745885942776e6
1.0774200091086242e6
1.0823869229200464e6
1.0867133851522428e6
1.090264480848302e6
1.093175782727666e6
1.0950552806246555e6
1.096413797028122e6
1.0960450563198433e6
1.0959253082253805e6
1.0919562216396262e6
1.092285843849975e6
1.0807217625657292e6
1.0947813421026361e6
99999.9960325522
100000.00639802132
99999.98947878409
100000.01708110515
99999.97196448389
100000.04574889681
99999.92488487043
100000.1231143787
99999.79741145864
100000.33359130497
99999.44871862179
100000.91364763943
99998.47786861469
100002.55324363684
99995.66975700101
100007.46759571125
99986.77879709334
100024.33432927197
99952.67301988784
100098.61127896409
99778.09074801905
100539.35687749785
98617.36165187103
103834.22116224922
89688.53337133657
134814.24023818842
522958.5053059999
929490.5255093985
1.0232741833478085e6
1.026362799730583e6
1.035712459505019e6
1.0433280242520479e6
1.0503721427240686e6
1.0566774800707013e6
1.0622669775127335e6
1.0671436036531634e6
1.0712560414516544e6
1.0746294879002462e6
1.0771218764575133e6
1.078859114872981e6
1.079468042599119e6
1.0794731321539255e6
1.0777906011586685e6
1.076397864604891e6
1.0716319557468318e6
1.0710656821928276e6
1.0594994632304057e6
1.0727988634199947e6
99999.99694184843
100000.00493896364
99999.99182282682
100000.0133296377
99999.97792200005
100000.03632357957
99999.93963369718
100000.10023166159
99999.83237868671
100000.28102152323
99999.52594632383
100000.80325036847
99998.63063762596
100002.34751889139
99995.9500276341
100007.03071302187
99987.71155943874
100021.62324036252
99961.63334623717
100068.60481377046
99875.50120708493
100228.48805595703
99565.32339602943
100853.86227925286
98220.29790117848
104151.52422378634
440973.1169088388
879004.7164588431
1.0156863154904029e6
1.0194972170595675e6
1.0281524172582997e6
1.035232949040511e6
1.0416543474594532e6
1.0472710676486185e6
1.052088968990757e6
1.0560949441047313e6
1.0592156134805956e6
1.061442575656937e6
1.0625848909338089e6
1.0626893332473058e6
1.0612513935582822e6
1.0585886926505375e6
1.053221995812255e6
1.0467001480121511e6
1.0340264269020758e6
1.0234082319632062e6
994039.6033441378
1.0005456534905575e6
99999.9978294728
100000.003464243
99999.99422012892
100000.0093796418
99999.98436883345
100000.0257538794
99999.95688576736
100000.07205973624
99999.87824969093
100000.20642509518
99999.64700882089
100000.60686268414
99998.94984770569
100001.82443271406
99996.82430248115
100005.50967042468
99990.54634383769
100015.78960843994
99975.05395245933
100034.38255249363
99968.93708415981
99960.51835754038
100345.86540921139
98534.02749410227
105194.56019919088
83979.8503091533
357571.57841438433
814491.2356388035
1.003595617155447e6
1.012606595420042e6
1.0201397663543432e6
1.0267046727141768e6
1.0324574979904736e6
1.0373353801717344e6
1.0413181095816531e6
1.0443763562860502e6
1.0464139744462051e6
1.0473902259426708e6
1.0470791146767907e6
1.045473020498242e6
1.0420414790403324e6
1.037024950966387e6
1.0290910120290887e6
1.0195941764090103e6
1.0048278213202712e6
989963.9080700778
961821.8094188912
928739.1546977861
99999.99868115432
100000.00199658272
99999.99663754829
100000.00528032963
99999.99124345696
100000.01410444028
99999.97662496184
100000.0384334834
99999.93572030451
100000.10775095476
99999.81720595172
100000.31175609953
99999.46462475554
100000.91990720585
99998.42849636589
100002.62867036897
99995.8115353756
100005.92381815078
99994.1936400575
99995.47352854017
100052.80099438164
99767.97314936559
100821.52053300406
97320.19340764426
108672.84753170598
75615.76506922576
277120.4004917168
735182.2365286956
984128.7820132435
1.0057117377423637e6
1.0117327565060668e6
1.017797108932356e6
1.0228458667715464e6
1.026941607051259e6
1.0300331307143372e6
1.0320717402640196e6
1.0329297942506162e6
1.0325192425194556e6
1.0305449403414788e6
1.0268802701892069e6
1.0208111582264021e6
1.0121859313131331e6
999014.2759124325
981050.9949389923
951569.8907694025
908702.1694449121
823192.9562801166
671774.5735138253
99999.99944679091
100000.00064603449
99999.99888678877
100000.00139523759
99999.99788208652
100000.00261797715
99999.99654795731
100000.0036367769
99999.99683749655
99999.99974908873
100000.0092279095
99999.96836058858
100000.08215808633
99999.80397233044
100000.45297686652
99998.9475013913
100002.5046345187
99993.8038831905
100015.93024614484
99957.33051584363
100117.314644406
99668.43336876376
100949.21912238798
97275.53479410263
108185.26651932215
77907.66339013906
204256.54590018946
641965.7555331703
953869.0772742112
998596.3996549392
1.0030694014517857e6
1.0085905130981551e6
1.012906307213704e6
1.0161847295440609e6
1.0183459017082633e6
1.0193195483425955e6
1.0189466937937165e6
1.0170888675878608e6
1.013390866843618e6
1.0076166665366893e6
998914.7253506758
986868.5004487872
969194.5924370779
944966.4686375584
907229.7508298715
852608.4652156617
757451.6497474812
601753.7428437602
100000.00005853226
99999.99956863656
100000.0006949297
99999.99826428165
100000.00327131296
99999.9932407998
100000.01294330762
99999.97477373268
100000.04800058823
99999.9084744194
100000.1731455488
99999.67229971338
100000.61956930274
99998.82530876997
100002.23654704947
99995.7084021183
100008.32744296447
99983.56973938817
100033.137471141
99931.10541087935
100148.3716954229
99666.12531655513
100785.57060742819
98078.09105365165
105044.27249316026
87255.77860431619
143715.24323126426
537576.7096828145
908906.9523281639
990356.1182564092
994330.8465278108
999164.7858776844
1.0027278125183972e6
1.0051649064297745e6
1.0063751975823437e6
1.006265854601862e6
1.0046456248204078e6
1.0013358494275886e6
995925.0347190715
988095.9150068728
976900.9922517414
961776.0675983025
940331.2971265449
911508.8428059977
868741.53914338
809798.2165909888
715684.9633861897
582945.9100714424
100000.00046004179
99999.99889659279
100000.00182679271
99999.99635850446
100000.00651315751
99999.98772009427
100000.02243169473
99999.95840217677
100000.07647486373
99999.85867937867
100000.2608115599
99999.5172090975
100000.89495965817
99998.3361960855
100003.10092633372
99994.20343284875
100010.8634135485
99979.59366772768
100038.36596722863
99927.90965682724
100134.75047007843
99750.52809939027
100450.83541819078
99218.42686717481
101244.6824448955
98522.01732765479
100584.41133742782
427153.29670869163
845068.4178328691
978681.5613138879
985613.8512607341
989563.7140811398
992381.40669473
993975.8896337464
994240.6967073171
993061.7497130698
990222.9064110796
985515.1330681053
978490.3075509937
968786.0940081085
955413.1176265116
937782.1703811263
913536.4320132153
881863.6603309797
836743.8080626536
777888.278824529
689463.5628022881
578837.0682889315
100000.00063322866
99999.99867385296
100000.0021995718
99999.99584836024
100000.00727125468
99999.98672623487
100000.02368565468
99999.95715016655
100000.07706126127
99999.86064281898
100000.25191211862
99999.54317636232
100000.82942790532
99998.49107586044
100002.74673989296
99995.00269556484
100009.0601820024
99983.70626889598
100028.80615493287
99950.72518420567
100078.63000041049
99892.95873112002
100077.1763150223
100222.3447707342
98451.37643107711
106464.67292374386
78603.72434240433
318672.89702906477
759496.274388233
959536.0822082823
976810.9416788813
979812.0500642856
981925.8612063212
982705.1449692035
982056.2766499893
979850.2195426434
975858.3710264504
969852.7981335566
961369.8524508729
950036.1829108833
934869.4045571244
915335.5977518228
889214.9823811156
856058.5975983841
810547.1574570646
753857.011221358
673191.3327881403
579614.8402504491
100000.00060925841
99999.99883035339
100000.00192993955
99999.99650838961
100000.00595727227
99999.98948165441
100000.01816824678
99999.96823730729
100000.05506878551
99999.90417081134
100000.1661219512
99999.7120478515
100000.4973305328
99999.1442971481
100001.46100907121
99997.53646058375
100004.05982625586
99993.58903235293
100009.25180161733
99989.42964600658
100002.118138926
100043.63554001591
99783.15042811648
100787.92185163728
97413.17791676303
108283.02009832273
76434.20263631645
221330.31096359907
652809.8109890212
927769.3680685334
967577.9386174676
970024.1152872569
971452.9196494342
971453.5039089046