# vtk DataFile Version 2.0
JuliaCFD
ASCII
DATASET UNSTRUCTURED_GRID

POINTS 32898 float
0.0 0.0 -0.05
0.0125 0.0 -0.05
0.025 0.0 -0.05
0.0375 0.0 -0.05
0.05 0.0 -0.05
0.0625 0.0 -0.05
0.075 0.0 -0.05
0.0875 0.0 -0.05
0.1 0.0 -0.05
0.1125 0.0 -0.05
0.125 0.0 -0.05
0.1375 0.0 -0.05
0.15 0.0 -0.05
0.1625 0.0 -0.05
0.175 0.0 -0.05
0.1875 0.0 -0.05
0.2 0.0 -0.05
0.2125 0.0 -0.05
0.225 0.0 -0.05
0.2375 0.0 -0.05
0.25 0.0 -0.05
0.2625 0.0 -0.05
0.275 0.0 -0.05
0.2875 0.0 -0.05
0.3 0.0 -0.05
0.3125 0.0 -0.05
0.325 0.0 -0.05
0.3375 0.0 -0.05
0.35 0.0 -0.05
0.3625 0.0 -0.05
0.375 0.0 -0.05
0.3875 0.0 -0.05
0.4 0.0 -0.05
0.4125 0.0 -0.05
0.425 0.0 -0.05
0.4375 0.0 -0.05
0.45 0.0 -0.05
0.4625 0.0 -0.05
0.475 0.0 -0.05
0.4875 0.0 -0.05
0.5 0.0 -0.05
0.5125 0.0 -0.05
0.525 0.0 -0.05
0.5375 0.0 -0.05
0.55 0.0 -0.05
0.5625 0.0 -0.05
0.575 0.0 -0.05
0.5875 0.0 -0.05
0.6 0.0 -0.05
0.0 0.0125 -0.05
0.0125 0.0125 -0.05
0.025 0.0125 -0.05
0.0375 0.0125 -0.05
0.05 0.0125 -0.05
0.0625 0.0125 -0.05
0.075 0.0125 -0.05
0.0875 0.0125 -0.05
0.1 0.0125 -0.05
0.1125 0.0125 -0.05
0.125 0.0125 -0.05
0.1375 0.0125 -0.05
0.15 0.0125 -0.05
0.1625 0.0125 -0.05
0.175 0.0125 -0.05
0.1875 0.0125 -0.05
0.2 0.0125 -0.05
0.2125 0.0125 -0.05
0.225 0.0125 -0.05
0.2375 0.0125 -0.05
0.25 0.0125 -0.05
0.2625 0.0125 -0.05
0.275 0.0125 -0.05
0.2875 0.0125 -0.05
0.3 0.0125 -0.05
0.3125 0.0125 -0.05
0.325 0.0125 -0.05
0.3375 0.0125 -0.05
0.35 0.0125 -0.05
0.3625 0.0125 -0.05
0.375 0.0125 -0.05
0.3875 0.0125 -0.05
0.4 0.0125 -0.05
0.4125 0.0125 -0.05
0.425 0.0125 -0.05
0.4375 0.0125 -0.05
0.45 0.0125 -0.05
0.4625 0.0125 -0.05
0.475 0.0125 -0.05
0.4875 0.0125 -0.05
0.5 0.0125 -0.05
0.5125 0.0125 -0.05
0.525 0.0125 -0.05
0.5375 0.0125 -0.05
0.55 0.0125 -0.05
0.5625 0.0125 -0.05
0.575 0.0125 -0.05
0.5875 0.0125 -0.05
0.6 0.0125 -0.05
0.0 0.025 -0.05
0.0125 0.025 -0.05
0.025 0.025 -0.05
0.0375 0.025 -0.05
0.05 0.025 -0.05
0.0625 0.025 -0.05
0.075 0.025 -0.05
0.0875 0.025 -0.05
0.1 0.025 -0.05
0.1125 0.025 -0.05
0.125 0.025 -0.05
0.1375 0.025 -0.05
0.15 0.025 -0.05
0.1625 0.025 -0.05
0.175 0.025 -0.05
0.1875 0.025 -0.05
0.2 0.025 -0.05
0.2125 0.025 -0.05
0.225 0.025 -0.05
0.2375 0.025 -0.05
0.25 0.025 -0.05
0.2625 0.025 -0.05
0.275 0.025 -0.05
0.2875 0.025 -0.05
0.3 0.025 -0.05
0.3125 0.025 -0.05
0.325 0.025 -0.05
0.3375 0.025 -0.05
0.35 0.025 -0.05
0.3625 0.025 -0.05
0.375 0.025 -0.05
0.3875 0.025 -0.05
0.4 0.025 -0.05
0.4125 0.025 -0.05
0.425 0.025 -0.05
0.4375 0.025 -0.05
0.45 0.025 -0.05
0.4625 0.025 -0.05
0.475 0.025 -0.05
0.4875 0.025 -0.05
0.5 0.025 -0.05
0.5125 0.025 -0.05
0.525 0.025 -0.05
0.5375 0.025 -0.05
0.55 0.025 -0.05
0.5625 0.025 -0.05
0.575 0.025 -0.05
0.5875 0.025 -0.05
0.6 0.025 -0.05
0.0 0.0375 -0.05
0.0125 0.0375 -0.05
0.025 0.0375 -0.05
0.0375 0.0375 -0.05
0.05 0.0375 -0.05
0.0625 0.0375 -0.05
0.075 0.0375 -0.05
0.0875 0.0375 -0.05
0.1 0.0375 -0.05
0.1125 0.0375 -0.05
0.125 0.0375 -0.05
0.1375 0.0375 -0.05
0.15 0.0375 -0.05
0.1625 0.0375 -0.05
0.175 0.0375 -0.05
0.1875 0.0375 -0.05
0.2 0.0375 -0.05
0.2125 0.0375 -0.05
0.225 0.0375 -0.05
0.2375 0.0375 -0.05
0.25 0.0375 -0.05
0.2625 0.0375 -0.05
0.275 0.0375 -0.05
0.2875 0.0375 -0.05
0.3 0.0375 -0.05
0.3125 0.0375 -0.05
0.325 0.0375 -0.05
0.3375 0.0375 -0.05
0.35 0.0375 -0.05
0.3625 0.0375 -0.05
0.375 0.0375 -0.05
0.3875 0.0375 -0.05
0.4 0.0375 -0.05
0.4125 0.0375 -0.05
0.425 0.0375 -0.05
0.4375 0.0375 -0.05
0.45 0.0375 -0.05
0.4625 0.0375 -0.05
0.475 0.0375 -0.05
0.4875 0.0375 -0.05
0.5 0.0375 -0.05
0.5125 0.0375 -0.05
0.525 0.0375 -0.05
0.5375 0.0375 -0.05
0.55 0.0375 -0.05
0.5625 0.0375 -0.05
0.575 0.0375 -0.05
0.5875 0.0375 -0.05
0.6 0.0375 -0.05
0.0 0.05 -0.05
0.0125 0.05 -0.05
0.025 0.05 -0.05
0.0375 0.05 -0.05
0.05 0.05 -0.05
0.0625 0.05 -0.05
0.075 0.05 -0.05
0.0875 0.05 -0.05
0.1 0.05 -0.05
0.1125 0.05 -0.05
0.125 0.05 -0.05
0.1375 0.05 -0.05
0.15 0.05 -0.05
0.1625 0.05 -0.05
0.175 0.05 -0.05
0.1875 0.05 -0.05
0.2 0.05 -0.05
0.2125 0.05 -0.05
0.225 0.05 -0.05
0.2375 0.05 -0.05
0.25 0.05 -0.05
0.2625 0.05 -0.05
0.275 0.05 -0.05
0.2875 0.05 -0.05
0.3 0.05 -0.05
0.3125 0.05 -0.05
0.325 0.05 -0.05
0.3375 0.05 -0.05
0.35 0.05 -0.05
0.3625 0.05 -0.05
0.375 0.05 -0.05
0.3875 0.05 -0.05
0.4 0.05 -0.05
0.4125 0.05 -0.05
0.425 0.05 -0.05
0.4375 0.05 -0.05
0.45 0.05 -0.05
0.4625 0.05 -0.05
0.475 0.05 -0.05
0.4875 0.05 -0.05
0.5 0.05 -0.05
0.5125 0.05 -0.05
0.525 0.05 -0.05
0.5375 0.05 -0.05
0.55 0.05 -0.05
0.5625 0.05 -0.05
0.575 0.05 -0.05
0.5875 0.05 -0.05
0.6 0.05 -0.05
0.0 0.0625 -0.05
0.0125 0.0625 -0.05
0.025 0.0625 -0.05
0.0375 0.0625 -0.05
0.05 0.0625 -0.05
0.0625 0.0625 -0.05
0.075 0.0625 -0.05
0.0875 0.0625 -0.05
0.1 0.0625 -0.05
0.1125 0.0625 -0.05
0.125 0.0625 -0.05
0.1375 0.0625 -0.05
0.15 0.0625 -0.05
0.1625 0.0625 -0.05
0.175 0.0625 -0.05
0.1875 0.0625 -0.05
0.2 0.0625 -0.05
0.2125 0.0625 -0.05
0.225 0.0625 -0.05
0.2375 0.0625 -0.05
0.25 0.0625 -0.05
0.2625 0.0625 -0.05
0.275 0.0625 -0.05
0.2875 0.0625 -0.05
0.3 0.0625 -0.05
0.3125 0.0625 -0.05
0.325 0.0625 -0.05
0.3375 0.0625 -0.05
0.35 0.0625 -0.05
0.3625 0.0625 -0.05
0.375 0.0625 -0.05
0.3875 0.0625 -0.05
0.4 0.0625 -0.05
0.4125 0.0625 -0.05
0.425 0.0625 -0.05
0.4375 0.0625 -0.05
0.45 0.0625 -0.05
0.4625 0.0625 -0.05
0.475 0.0625 -0.05
0.4875 0.0625 -0.05
0.5 0.0625 -0.05
0.5125 0.0625 -0.05
0.525 0.0625 -0.05
0.5375 0.0625 -0.05
0.55 0.0625 -0.05
0.5625 0.0625 -0.05
0.575 0.0625 -0.05
0.5875 0.0625 -0.05
0.6 0.0625 -0.05
0.0 0.075 -0.05
0.0125 0.075 -0.05
0.025 0.075 -0.05
0.0375 0.075 -0.05
0.05 0.075 -0.05
0.0625 0.075 -0.05
0.075 0.075 -0.05
0.0875 0.075 -0.05
0.1 0.075 -0.05
0.1125 0.075 -0.05
0.125 0.075 -0.05
0.1375 0.075 -0.05
0.15 0.075 -0.05
0.1625 0.075 -0.05
0.175 0.075 -0.05
0.1875 0.075 -0.05
0.2 0.075 -0.05
0.2125 0.075 -0.05
0.225 0.075 -0.05
0.2375 0.075 -0.05
0.25 0.075 -0.05
0.2625 0.075 -0.05
0.275 0.075 -0.05
0.2875 0.075 -0.05
0.3 0.075 -0.05
0.3125 0.075 -0.05
0.325 0.075 -0.05
0.3375 0.075 -0.05
0.35 0.075 -0.05
0.3625 0.075 -0.05
0.375 0.075 -0.05
0.3875 0.075 -0.05
0.4 0.075 -0.05
0.4125 0.075 -0.05
0.425 0.075 -0.05
0.4375 0.075 -0.05
0.45 0.075 -0.05
0.4625 0.075 -0.05
0.475 0.075 -0.05
0.4875 0.075 -0.05
0.5 0.075 -0.05
0.5125 0.075 -0.05
0.525 0.075 -0.05
0.5375 0.075 -0.05
0.55 0.075 -0.05
0.5625 0.075 -0.05
0.575 0.075 -0.05
0.5875 0.075 -0.05
0.6 0.075 -0.05
0.0 0.0875 -0.05
0.0125 0.0875 -0.05
0.025 0.0875 -0.05
0.0375 0.0875 -0.05
0.05 0.0875 -0.05
0.0625 0.0875 -0.05
0.075 0.0875 -0.05
0.0875 0.0875 -0.05
0.1 0.0875 -0.05
0.1125 0.0875 -0.05
0.125 0.0875 -0.05
0.1375 0.0875 -0.05
0.15 0.0875 -0.05
0.1625 0.0875 -0.05
0.175 0.0875 -0.05
0.1875 0.0875 -0.05
0.2 0.0875 -0.05
0.2125 0.0875 -0.05
0.225 0.0875 -0.05
0.2375 0.0875 -0.05
0.25 0.0875 -0.05
0.2625 0.0875 -0.05
0.275 0.0875 -0.05
0.2875 0.0875 -0.05
0.3 0.0875 -0.05
0.3125 0.0875 -0.05
0.325 0.0875 -0.05
0.3375 0.0875 -0.05
0.35 0.0875 -0.05
0.3625 0.0875 -0.05
0.375 0.0875 -0.05
0.3875 0.0875 -0.05
0.4 0.0875 -0.05
0.4125 0.0875 -0.05
0.425 0.0875 -0.05
0.4375 0.0875 -0.05
0.45 0.0875 -0.05
0.4625 0.0875 -0.05
0.475 0.0875 -0.05
0.4875 0.0875 -0.05
0.5 0.0875 -0.05
0.5125 0.0875 -0.05
0.525 0.0875 -0.05
0.5375 0.0875 -0.05
0.55 0.0875 -0.05
0.5625 0.0875 -0.05
0.575 0.0875 -0.05
0.5875 0.0875 -0.05
0.6 0.0875 -0.05
0.0 0.1 -0.05
0.0125 0.1 -0.05
0.025 0.1 -0.05
0.0375 0.1 -0.05
0.05 0.1 -0.05
0.0625 0.1 -0.05
0.075 0.1 -0.05
0.0875 0.1 -0.05
0.1 0.1 -0.05
0.1125 0.1 -0.05
0.125 0.1 -0.05
0.1375 0.1 -0.05
0.15 0.1 -0.05
0.1625 0.1 -0.05
0.175 0.1 -0.05
0.1875 0.1 -0.05
0.2 0.1 -0.05
0.2125 0.1 -0.05
0.225 0.1 -0.05
0.2375 0.1 -0.05
0.25 0.1 -0.05
0.2625 0.1 -0.05
0.275 0.1 -0.05
0.2875 0.1 -0.05
0.3 0.1 -0.05
0.3125 0.1 -0.05
0.325 0.1 -0.05
0.3375 0.1 -0.05
0.35 0.1 -0.05
0.3625 0.1 -0.05
0.375 0.1 -0.05
0.3875 0.1 -0.05
0.4 0.1 -0.05
0.4125 0.1 -0.05
0.425 0.1 -0.05
0.4375 0.1 -0.05
0.45 0.1 -0.05
0.4625 0.1 -0.05
0.475 0.1 -0.05
0.4875 0.1 -0.05
0.5 0.1 -0.05
0.5125 0.1 -0.05
0.525 0.1 -0.05
0.5375 0.1 -0.05
0.55 0.1 -0.05
0.5625 0.1 -0.05
0.575 0.1 -0.05
0.5875 0.1 -0.05
0.6 0.1 -0.05
0.0 0.1125 -0.05
0.0125 0.1125 -0.05
0.025 0.1125 -0.05
0.0375 0.1125 -0.05
0.05 0.1125 -0.05
0.0625 0.1125 -0.05
0.075 0.1125 -0.05
0.0875 0.1125 -0.05
0.1 0.1125 -0.05
0.1125 0.1125 -0.05
0.125 0.1125 -0.05
0.1375 0.1125 -0.05
0.15 0.1125 -0.05
0.1625 0.1125 -0.05
0.175 0.1125 -0.05
0.1875 0.1125 -0.05
0.2 0.1125 -0.05
0.2125 0.1125 -0.05
0.225 0.1125 -0.05
0.2375 0.1125 -0.05
0.25 0.1125 -0.05
0.2625 0.1125 -0.05
0.275 0.1125 -0.05
0.2875 0.1125 -0.05
0.3 0.1125 -0.05
0.3125 0.1125 -0.05
0.325 0.1125 -0.05
0.3375 0.1125 -0.05
0.35 0.1125 -0.05
0.3625 0.1125 -0.05
0.375 0.1125 -0.05
0.3875 0.1125 -0.05
0.4 0.1125 -0.05
0.4125 0.1125 -0.05
0.425 0.1125 -0.05
0.4375 0.1125 -0.05
0.45 0.1125 -0.05
0.4625 0.1125 -0.05
0.475 0.1125 -0.05
0.4875 0.1125 -0.05
0.5 0.1125 -0.05
0.5125 0.1125 -0.05
0.525 0.1125 -0.05
0.5375 0.1125 -0.05
0.55 0.1125 -0.05
0.5625 0.1125 -0.05
0.575 0.1125 -0.05
0.5875 0.1125 -0.05
0.6 0.1125 -0.05
0.0 0.125 -0.05
0.0125 0.125 -0.05
0.025 0.125 -0.05
0.0375 0.125 -0.05
0.05 0.125 -0.05
0.0625 0.125 -0.05
0.075 0.125 -0.05
0.0875 0.125 -0.05
0.1 0.125 -0.05
0.1125 0.125 -0.05
0.125 0.125 -0.05
0.1375 0.125 -0.05
0.15 0.125 -0.05
0.1625 0.125 -0.05
0.175 0.125 -0.05
0.1875 0.125 -0.05
0.2 0.125 -0.05
0.2125 0.125 -0.05
0.225 0.125 -0.05
0.2375 0.125 -0.05
0.25 0.125 -0.05
0.2625 0.125 -0.05
0.275 0.125 -0.05
0.2875 0.125 -0.05
0.3 0.125 -0.05
0.3125 0.125 -0.05
0.325 0.125 -0.05
0.3375 0.125 -0.05
0.35 0.125 -0.05
0.3625 0.125 -0.05
0.375 0.125 -0.05
0.3875 0.125 -0.05
0.4 0.125 -0.05
0.4125 0.125 -0.05
0.425 0.125 -0.05
0.4375 0.125 -0.05
0.45 0.125 -0.05
0.4625 0.125 -0.05
0.475 0.125 -0.05
0.4875 0.125 -0.05
0.5 0.125 -0.05
0.5125 0.125 -0.05
0.525 0.125 -0.05
0.5375 0.125 -0.05
0.55 0.125 -0.05
0.5625 0.125 -0.05
0.575 0.125 -0.05
0.5875 0.125 -0.05
0.6 0.125 -0.05
0.0 0.1375 -0.05
0.0125 0.1375 -0.05
0.025 0.1375 -0.05
0.0375 0.1375 -0.05
0.05 0.1375 -0.05
0.0625 0.1375 -0.05
0.075 0.1375 -0.05
0.0875 0.1375 -0.05
[...]
CELL_DATA 16128
SCALARS P float 1
LOOKUP_TABLE default
99999.99085361662
100000.01455157416
99999.97632041933
100000.03799902547
99999.93865499269
100000.09855161377
99999.84167509107
100000.25361190598
99999.5949748532
100000.64384568986
99998.9841065258
100001.58417532149
99997.58034349921
100003.55839883404
99995.1597985648
100005.41260944807
99997.76949632441
99985.74755546956
100072.81922129693
99744.08997745132
100811.53909334086
97614.23629820217
107289.30266105999
80412.57410229754
180906.62607640598
616869.886028234
999548.5342420867
1.0542924788523072e6
1.058123670911706e6
1.071709903546415e6
1.082489050348987e6
1.0934696301579634e6
1.1038310921745615e6
1.1138056436686583e6
1.1233064684481432e6
1.132375019821056e6
1.1409487743271599e6
1.1490871378532518e6
1.1566339117723808e6
1.163781845949131e6
1.1701005578598373e6
1.1762255711155664e6
1.1809203423370975e6
1.1862070893815255e6
1.1884031134889887e6
1.193820009984396e6
1.1912561367825158e6
1.200239810404377e6
99999.99101560593
100000.01428222962
99999.97685509174
100000.03703536454
99999.94047218529
100000.09521350304
99999.84783120139
100000.24237356732
99999.61531201215
100000.60745944959
99999.04816351195
100001.47362269131
99997.76578420633
100003.2595961293
99995.61176605175
100004.80287641546
99998.39873222838
99985.68377085842
100070.56303253172
99753.45153901006
100782.84191334792
97689.5778471531
107086.23438393847
80819.51203360107
178712.31102559224
613954.8625737791
1.0011393411280614e6
1.0588909752472392e6
1.0630959805919237e6
1.0771230596271723e6
1.0880798248560892e6
1.0991833338075439e6
1.109634989562395e6
1.119695500464487e6
1.1292865641133243e6
1.13845312396356e6
1.147132316108455e6
1.1553818224167416e6
1.1630420643014838e6
1.170302716807663e6
1.1767275114847715e6
1.1829497108117843e6
1.1877216416960424e6
1.1930717792331378e6
1.195287320533903e6
1.2007315988761685e6
1.1980784585966512e6
1.2071613287579669e6
99999.99087015842
100000.01464583853
99999.97623354151
100000.0382986271
99999.93814412288
100000.09967589649
99999.83949072813
100000.25806567867
99999.58599078062
100000.66223913943
99998.94603421641
100001.66392926118
99997.41111967503
100003.92155512392
99994.37172787462
100007.14194631917
99993.93422026777
99994.36549308452
100053.1871090074
99789.44384487806
100703.55348611186
97866.45079904291
106620.83786069577
81824.93509178869
172461.87421412734
601851.4930059032
993701.7435620531
1.0558971277007216e6
1.0591550482133392e6
1.0730113201688933e6
1.0837343785534988e6
1.0946587282829285e6
1.104940337650145e6
1.1148334876936008e6
1.1242542789375086e6
1.1332456680935593e6
1.1417460955166705e6
1.1498140574183497e6
1.1572947177417951e6
1.1643781202665092e6
1.1706372741207557e6
1.1767015853343122e6
1.1813409817491947e6
1.1865709975877542e6
1.188703236091678e6
1.1940960302613599e6
1.1913648705879198e6
1.200603989368885e6
99999.99070384011
100000.01508820774
99999.97548076314
100000.0398457544
99999.935287823
100000.10515433256
99999.82926836473
100000.2772224627
99999.55039328107
100000.7282682171
99998.82394222128
100001.88942813409
99996.99444481576
100004.6937951957
99992.93033727667
100009.8666609651
99988.6744624471
100004.83413955364
100031.42129416313
99836.87999528962
100592.7872469596
98128.90314943409
105898.70560999837
83467.52429410226
163376.73099692102
584837.438322413
985864.9888053181
1.056096870837511e6
1.0586472436056496e6
1.072773547280853e6
1.0835307226389518e6
1.0944844431372166e6
1.1047685294609615e6
1.1146544102842365e6
1.124065451432736e6
1.1330494443092982e6
1.14154913150925e6
1.1496242664289633e6
1.1571233572926682e6
1.1642342249592585e6
1.1705343162947954e6
1.1766449081610667e6
1.181342429942118e6
1.1866288301829677e6
1.188810397460878e6
1.194273456300153e6
1.1914802863630338e6
1.200971520177053e6
99999.99060142261
100000.01542651714
99999.97490346445
100000.04109701926
99999.93293419629
100000.10976796784
99999.82054075327
100000.29376951799
99999.51936663968
100000.78627234462
99998.71586837375
100002.09075627789
99996.61824853913
100005.4019788119
99991.5781789021
100012.50551817304
99983.35285101939
100016.01706320126
100006.64923078031
99894.38369389725
100450.42874346502
98483.62866315909
104897.30986234147
85854.7020772415
151705.64526666098
561347.3021452245
973457.0757285487
1.054577835659639e6
1.0558613469646045e6
1.0699407511775398e6
1.0804742738174929e6
1.0912364860461862e6
1.101328312203413e6
1.1110211860977614e6
1.1202383001050109e6
1.1290263839395095e6
1.1373302089233573e6
1.1452093270353947e6
1.152516775484261e6
1.1594382342282466e6
1.1655602958923134e6
1.171496166462066e6
1.176039567444131e6
1.1811779148701911e6
1.1832312360555346e6
1.188618750565121e6
1.1856474461480696e6
1.1953994973382722e6
99999.99064550352
100000.01548367651
99999.97479643021
100000.04149701136
99999.93206423045
100000.11173688548
99999.81648459919
100000.30202318226
99999.5030154158
100000.81834986388
99998.65336329432
100002.21260229933
99996.37894082481
100005.87906532244
99990.60293467651
100014.56565672536
99978.80918543381
100026.4870603816
99981.28502202222
99957.93410508145
100283.1505249283
98921.4077096
103636.88449507176
89012.12297922693
138247.11166842023
532079.6394024919
957327.6001549771
1.0532422272426067e6
1.0533898211819022e6
1.067532779457426e6
1.077953039280279e6
1.0886027246886764e6
1.0985708372614598e6
1.1081301968520423e6
1.117210426414647e6
1.12586063105511e6
1.134030886356911e6
1.141782708884746e6
1.148975758348915e6
1.1557947254013869e6
1.1618365088437365e6
1.1677059843811e6
1.1722117797438093e6
1.1773256072837897e6
1.1793645500480004e6
1.1847958545114708e6
1.1816969742161394e6
1.1918244749691125e6
99999.99088929713
100000.01514535779
99999.97534834468
100000.04069014461
99999.93330390537
100000.10992448764
99999.81913232076
100000.29832846853
99999.5078947982
100000.81272965124
99998.65758313917
100002.21685812835
99996.34542844711
100005.9997744885
99990.23428346559
100015.62153089858
99975.84361264647
100034.71529344268
99958.3099817054
100021.65000064981
100103.04218111074
99419.04885095234
102176.12835185815
92884.93147152754
123793.66751332596
497027.98377736023
936163.7041222787
1.0509875993656854e6
1.0501424433272402e6
1.0641490887484848e6
1.074362384456299e6
1.0847858619705252e6
1.0945268425353132e6
1.1038476683497012e6
1.1126838499176328e6
1.1210835627280956e6
1.1290002748253758e6
1.1364952418056144e6
1.14343308698796e6
1.1499952485699947e6
1.1557878292845553e6
1.1614060248093714e6
1.1656750563046066e6
1.1705570024047997e6
1.1723711132774898e6
1.1776704801033314e6
1.1742647842719234e6
1.1847862167246242e6
99999.99134274556
100000.014389189
99999.97659417117
100000.03861055551
99999.9367677773
100000.10412044896
99999.82886916683
100000.28196046624
99999.53539443477
100000.76668284525
99998.7340120839
100002.092254391
99996.54137684366
100005.71350327448
99990.58253509183
100015.4293274618
99975.00559420713
100039.45051840566
99940.64514910437
100078.68514773798
99926.89879741377
99936.94864585402
100625.6233767263
97257.75188406224
109360.81134930122
456680.9656314553
909348.5188867532
1.0478087222969781e6
1.0466738569222152e6
1.060399166675856e6
1.0704428353509975e6
1.0806315214848765e6
1.090141167065938e6
1.099212933285848e6
1.1077922212693323e6
1.1159270403594985e6
1.1235764167309299e6
1.1308038528563597e6
1.1374826240749937e6
1.1437955721275883e6
1.1493640837205893e6
1.1547799616754425e6
1.1588902226052773e6
1.163650174641952e6
1.1653700136981905e6
1.1706902784779791e6
1.167070403872831e6
1.178145799278765e6
99999.99197179705
100000.01328706263
99999.97841092585
100000.03549210257
99999.94203703394
100000.09509099246
99999.84431910861
100000.25538303527
99999.58115534348
100000.68782504342
99998.8695793336
100001.86066898199
99996.93155307
100005.0734626922
99991.57730955536
100014.05351059117
99976.338229676
100040.21945858745
99930.2048747622
100122.90873350216
99773.41197054446
100422.249243015
99141.50115800048
101723.26242314656
96101.15433221181
411681.1216580912
875878.3851483099
1.0430086202018865e6
1.0428731545665317e6
1.0560082615104374e6
1.0658706083851263e6
1.0757517136985152e6
1.0849647806800518e6
1.0937145176410114e6
1.1019577587869281e6
1.1097394656327397e6
1.1170214079610764e6
1.1238653025088764e6
1.1301473187553808e6
1.1360446857261797e6
1.1411838499840877e6
1.1461453305690566e6
1.1497849571468562e6
1.1540611041667215e6
1.155264182494963e6
1.1602176983102206e6
1.1559548655626078e6
1.1675674897633735e6
99999.9927113062
100000.01197885719
99999.9805609673
100000.0317886688
99999.9482948768
100000.08434400415
99999.8627374189
100000.22360319905
99999.6360915864
100000.59257724223
99999.03479076401
100001.57462665123
99997.4235725429
100004.23914185379
99992.95174106707
100011.9175737699
99979.24165338722
100037.65751896416
99927.12272029796
100150.60170118145
99659.34731902013
100816.37760468612
97905.476198862
105691.20048152236
85264.03020536185
363052.6585689225
834861.7906090285
1.0358352596755968e6
1.038928049601978e6
1.0510878267313282e6
1.0607995080265175e6
1.070328384559847e6
1.07920762022168e6
1.0875903837187688e6
1.095448001855092e6
1.1028225464034667e6
1.1096803881499278e6
1.1160849648066428e6
1.121921683459552e6
1.1273722155154236e6
1.132083676214975e6
1.1366434993342666e6
1.1399414301199822e6
1.1439477523553458e6
1.144946832731185e6
1.1498908676593357e6
1.1453175131009456e6
1.1577611437509651e6
99999.99348770916
100000.01062401469
99999.982773312
100000.02801984809
99999.95459976686
100000.07363177538
99999.8808978188
100000.19258775031
99999.68918973861
100000.50125422217
99999.19225146146
100001.30271326391
99997.89235899031
100003.43643343063
99994.30437225486
100009.71577305587
99982.57498089023
100033.45954219798
99929.49096027351
100161.73513159776
99595.03606685897
101068.28599706946
97087.92529738834
108488.8559687564
78033.8420573488
312185.86193854583
785467.2961828954
1.0251416105017603e6
1.034899930942748e6
1.0456002270642332e6
1.055182113218498e6
1.06429809552376e6
1.0727861686826865e6
1.0807339286344708e6
1.0881269860157704e6
1.0950007506385841e6
1.1013205058084365e6
1.1071430429900237e6
1.1123489342848894e6
1.1171056575428701e6
1.121049132408031e6
1.1247432152696562e6
1.127053243478195e6
1.129961709102206e6
1.129665940205096e6
1.1334970376893824e6
1.1272835517504993e6
1.1403229412908324e6
99999.99424391477
100000.00934607748
99999.98483826716
100000.02458727323
99999.96022034789
100000.06432328904
99999.89625442459
100000.16710385121
99999.73151220901
100000.43064980752
99999.31037684892
100001.10430353037
99998.22655144744
100002.8730303937
99995.25167126513
100008.14301587653
99985.11852081948
100029.63211905379
99934.4129082314
100158.95419723423
99583.54540831881
101144.13103758066
96816.1531871492
109506.02491307672
75293.28743690775
260861.10221623507
727164.7946544123
1.0094659835337648e6
1.0308391233645441e6
1.039592978177581e6
1.0490610769366696e6
1.0577138554557562e6
1.0657591183021916e6
1.0732119162627344e6
1.0800720550696875e6
1.086368533977048e6
1.0920671303030862e6
1.0972226763384172e6
1.1017216216837652e6
1.1057357844515434e6
1.108926332054706e6
1.1118764339737445e6
1.1135145307790411e6
1.1158580979666777e6
1.1151681666413855e6
1.118863177374969e6
1.1123035714223995e6
1.1264514928388188e6
99999.99495702649
100000.00819098014
99999.98667989181
100000.02163044727
99999.96490654464
100000.05688165031
99999.90794167128
100000.14879872084
99999.75988415407
100000.38695952082
99999.376961279
100001.00360435704
99998.37792811752
100002.64496893976
99995.60278493857
100007.57447791987
99986.14353417543
100027.54114104492
99939.41192461691
100146.20818952848
99619.2983350656
101045.15556240534
97100.34517851351
108653.84859230321
77226.39466155396
211124.35614548528
659887.7245435689
987008.2536535142
1.0266467091033128e6
1.0331249199243713e6
1.0424494630462624e6
1.0505903680963062e6
1.0581325689540629e6
1.065020804882983e6
1.071263228877013e6
1.0768772391221556e6
1.0818190837662946e6
1.0861263306612535e6
1.089663277839942e6
1.0925646473192691e6
1.0944378574299586e6
1.0957923749971096e6
1.095422045629874e6
1.0953006835279115e6
1.0913313124381984e6
1.0916572727331747e6
1.080093712560458e6
1.094145147087858e6
99999.99564126639
100000.00711763937
99999.98837368471
100000.01898784611
99999.968971465
100000.05069083358
99999.91714012253
100000.13543204627
99999.778498954
100000.36244457646
99999.40607411551
100000.97552616046
99998.39014800306
100002.67892713951
99995.47390645853
100007.84400460479
99985.83085544547
100027.16179397446
99943.69709237156
100126.98225060698
99690.00879834562
100809.1803139367
97826.56440851478
106296.51086381385
83215.82683287373
165345.561222287
584263.2163570771
955669.0998866294
1.0219469627455806e6
1.0263051394284547e6
1.0353753975284487e6
1.0429683404957204e6
1.0499487511563392e6
1.0562089812871113e6
1.0617588530877104e6
1.0666039757103012e6
1.0706915290677752e6
1.074046198651095e6
1.076525120921812e6
1.0782533356347128e6
1.0788570286705378e6
1.07885936629966e6
1.0771761519634614e6
1.0757824304930905e6
1.0710161423344929e6
1.0704452733370115e6
1.0588782768401115e6
1.0721680083904858e6
99999.99633392981
100000.00602802254
99999.99009592157
100000.01629326485
99999.97312146552
100000.044362894
99999.92653558282
100000.1218223666
99999.79729373733
100000.33816140649
99999.43360567845
100000.95262116512
99998.38865600161
100002.74498261034
99995.2771246744
100008.23865246162
99985.3368304067
100026.84572777162
99948.84745328319
100102.58540706521
99781.02852063898
100500.33375884104
98788.55758058482
103179.85708627668
91729.44509184333
126274.53312054266
501865.6042703686
913122.0494229278
1.0158592630295581e6
1.0192707218332388e6
1.0278567990909533e6
1.0348815957828795e6
1.0412418337666376e6
1.0468108725413401e6
1.0515882691403676e6
1.0555621137382083e6
1.0586577414695758e6
1.0608661385879552e6
1.0619955855241113e6
1.0620920585620538e6
1.0606504347357615e6
1.0579872434830498e6
1.0526230821070597e6
1.0461045040787403e6
1.0334367451971469e6
1.0228200503614559e6
993461.3297127053
999956.8913888816
99999.99706955934
100000.00482669318
99999.99202063226
100000.01317899233
99999.97807972813
100000.03645226687
99999.93898051532
100000.10235784677
99999.82726078935
100000.29268029355
99999.50114859511
100000.85465634332
99998.52704690487
100002.55243036582
99995.55345553093
100007.77895280575
99986.3537854886
100023.92592514993
99958.24894935581
100071.74050919949
99879.98173215713
100186.98402723788
99744.10030802882
100197.27528292972
100416.51800167646
96933.06663875232
415522.0563727252
857046.1523081661
1.0067333577322877e6
1.0121527225875929e6
1.0199078020994875e6
1.0263682480465306e6
1.0320604273640976e6
1.0368870608032718e6
1.0408281286465438e6
1.0438535662826272e6
1.0458660022331577e6
1.0468239638586511e6
1.0465006224328008e6
1.0448876431928818e6
1.0414539333223732e6
1.0364387605214487e6
1.028509301171336e6
1.0190175001831206e6
1.0042573480241275e6
989395.0294710475
961257.0110722178
928185.588333502
99999.9978536742
100000.00348410886
99999.99420818439
100000.00950003933
99999.98415983377
100000.02628473364
99999.95589510133
100000.07408635634
99999.874481962
100000.21358588956
99999.63386569964
100000.63104885536
99998.90607891136
100001.90301158538
99996.68630431099
100005.74349183307
99990.1806980344
100016.25647980766
99974.85677559073
100032.6488752203
99978.77373597535
99921.7238316224
100482.66557523067
98086.83622255028
106699.94923576663
79809.6065053686
329410.21837106347
785751.1156912426
992010.920932622
1.0050195019562318e6
1.011553917900795e6
1.0174712752229335e6
1.0224607194291338e6
1.0265036075968188e6
1.0295536283214506e6
1.0315597836071945e6
1.0323933337950238e6
1.0319653144418882e6
1.0299800225228916e6
1.0263101060119806e6
1.0202410793228333e6
1.0116204143707319e6
998458.0901337123
980507.3370060694
951045.4603243417
908199.7097446743
822736.3140679131
671382.5332110032
99999.99864892938
100000.00207231083
99999.9965405769
100000.00546831111
99999.99100099821
100000.01448923271
99999.97620313143
100000.03884856412
99999.93584945545
100000.10606277254
99999.82326702918
100000.2953776981
99999.50470446669
100000.82814523415
99998.63065767885
100002.19638754449
99996.71634781928
100004.06526903689
99997.95795472663
99987.97865432466
100067.60980193931
99739.45821071624
100876.7920075854
97221.16190813597
108848.74439036875
75357.95841893367
248514.9156132496
699070.3131575556
968404.5607818449
997812.8372279677
1.0028825755524678e6
1.0082589179058988e6
1.0125215647988009e6
1.015750361706218e6
1.0178727675180237e6
1.0188161860423182e6
1.0184208657474886e6
1.016547659875905e6
1.0128408177297865e6
1.0070638546962655e6
998365.0167449102
986327.1395470338
968667.602686112
944458.2617650107
906749.3292346701
852158.3520222367
757057.4608079242
601419.9774851722
99999.9993818119
100000.00075162311
99999.99874233535
100000.00161543993
99999.99762685344
100000.00290434375
99999.99646610503
100000.00310979516
99999.99919921828
99999.99303131593
100000.02612939282
99999.9291582919
100000.16930134014
99999.61677583857
100000.84509444221
99998.14590926943
100004.10245639468
99990.72221178326
100021.60102273399
99947.75505166143
100130.83516288684
99659.35716149939
100912.54980158772
97513.13809689505
107153.86098404996
81053.57245484121
177835.1567921668
598774.385673399
932117.9730258534
990099.8466019175
994063.1652062975
998822.543201647
1.0023378775999767e6
1.0047305003107515e6
1.0059053632620989e6
1.0057686676800827e6
1.0041286613474472e6
1.0008063112437311e6
995389.5601076717
987560.7805069513
976372.4569035912
961259.8648944182
939834.2705689692
911035.9183954782
868302.8587069447
809395.1630553919
715341.5630682062
582654.4871770542
99999.99996834519
99999.99971039327
100000.0004850679
99999.99858516872
100000.00283438194
99999.99383186531
100000.01230346427
99999.9752506634
100000.04847383444
99999.9053216697
100000.18316723677
99999.64647486691
100000.68038902945
99998.69032672376
100002.52402550963
99995.11904783527
100009.48735872298
99981.41299246806
100036.78796377753
99926.12140337074
100150.8821400208
99684.59171732697
100676.10599826429
98510.93681645654
103460.32128235749
92118.49559978985
122576.14301444753
488795.78688719496
878838.6678972566
980421.5920776095
985255.5604976477
989235.2713687461
991995.9139036662
993545.724114114
993775.4606996727
992570.4951073625
989714.0134663637
984996.226544279
977968.4668318472
968267.9054619347
954905.1844427388
937290.538608097
913068.3423521378
881424.1938284789
836343.0805297275
777527.1887977885
689161.9062586406
578584.7543454423
100000.0003473583
99999.9990852214
100000.00152804895
99999.99685049646
100000.00573404554
99999.98898146505
100000.02044389537
99999.96156342344
100000.07154688222
99999.86636091047
100000.2490331684
99999.53519178316
100000.8677436986
99998.37781759685
100003.03492551998
99994.31865523066
100010.62767332535
99980.17257743236
100036.74076080609
99932.80530900207
100119.64473281124
99797.2895538648
100306.21326152129
99660.39083662178
99876.32272079124
102690.29327518375
87835.00677692394
375990.46035016753
804484.8452205757
965565.3523921393
976446.0915091161
979523.341894594
981557.095231319
982284.8541898233
981598.2984456357
979365.9034249976
975357.5489564118
969343.9506428794
960860.6702030734
949533.7050664768
934380.5782831799
914866.711109406
888773.3720691925
855649.4094891502
810179.7639992478
753532.5924625774
672925.0139035115
579398.7358964196
100000.0005054142
99999.99890158963
100000.001823913
99999.99650060429
100000.00615982326
99999.98866414056
100000.02030699857
99999.96313434173
100000.06638593305
99999.87995638333
100000.21659980941
99999.60861673598
100000.70670167253
99998.72422944465
100002.2983961215
99995.87558858297
100007.34007020178
99987.13820430796
100021.87126397851
99964.9306969199
100049.10066345976
99955.36733996872
99942.83314796968
100518.23427661437
97790.19094295234
108027.8599652338
75421.58206926065
269740.47641534347
707552.4696507982
940710.0083745924
967384.6641806053
969731.9984365713
971086.2467725084
971035.737863166
969482.0629900332
966287.5724744278