# vtk DataFile Version 2.0
JuliaCFD
ASCII
DATASET UNSTRUCTURED_GRID

POINTS 32898 float
0.0 0.0 -0.05
0.0125 0.0 -0.05
0.025 0.0 -0.05
0.0375 0.0 -0.05
0.05 0.0 -0.05
0.0625 0.0 -0.05
0.075 0.0 -0.05
0.0875 0.0 -0.05
0.1 0.0 -0.05
0.1125 0.0 -0.05
0.125 0.0 -0.05
0.1375 0.0 -0.05
0.15 0.0 -0.05
0.1625 0.0 -0.05
0.175 0.0 -0.05
0.1875 0.0 -0.05
0.2 0.0 -0.05
0.2125 0.0 -0.05
0.225 0.0 -0.05
0.2375 0.0 -0.05
0.25 0.0 -0.05
0.2625 0.0 -0.05
0.275 0.0 -0.05
0.2875 0.0 -0.05
0.3 0.0 -0.05
0.3125 0.0 -0.05
0.325 0.0 -0.05
0.3375 0.0 -0.05
0.35 0.0 -0.05
0.3625 0.0 -0.05
0.375 0.0 -0.05
0.3875 0.0 -0.05
0.4 0.0 -0.05
0.4125 0.0 -0.05
0.425 0.0 -0.05
0.4375 0.0 -0.05
0.45 0.0 -0.05
0.4625 0.0 -0.05
0.475 0.0 -0.05
0.4875 0.0 -0.05
0.5 0.0 -0.05
0.5125 0.0 -0.05
0.525 0.0 -0.05
0.5375 0.0 -0.05
0.55 0.0 -0.05
0.5625 0.0 -0.05
0.575 0.0 -0.05
0.5875 0.0 -0.05
0.6 0.0 -0.05
0.0 0.0125 -0.05
0.0125 0.0125 -0.05
0.025 0.0125 -0.05
0.0375 0.0125 -0.05
0.05 0.0125 -0.05
0.0625 0.0125 -0.05
0.075 0.0125 -0.05
0.0875 0.0125 -0.05
0.1 0.0125 -0.05
0.1125 0.0125 -0.05
0.125 0.0125 -0.05
0.1375 0.0125 -0.05
0.15 0.0125 -0.05
0.1625 0.0125 -0.05
0.175 0.0125 -0.05
0.1875 0.0125 -0.05
0.2 0.0125 -0.05
0.2125 0.0125 -0.05
0.225 0.0125 -0.05
0.2375 0.0125 -0.05
0.25 0.0125 -0.05
0.2625 0.0125 -0.05
0.275 0.0125 -0.05
0.2875 0.0125 -0.05
0.3 0.0125 -0.05
0.3125 0.0125 -0.05
0.325 0.0125 -0.05
0.3375 0.0125 -0.05
0.35 0.0125 -0.05
0.3625 0.0125 -0.05
0.375 0.0125 -0.05
0.3875 0.0125 -0.05
0.4 0.0125 -0.05
0.4125 0.0125 -0.05
0.425 0.0125 -0.05
0.4375 0.0125 -0.05
0.45 0.0125 -0.05
0.4625 0.0125 -0.05
0.475 0.0125 -0.05
0.4875 0.0125 -0.05
0.5 0.0125 -0.05
0.5125 0.0125 -0.05
0.525 0.0125 -0.05
0.5375 0.0125 -0.05
0.55 0.0125 -0.05
0.5625 0.0125 -0.05
0.575 0.0125 -0.05
0.5875 0.0125 -0.05
0.6 0.0125 -0.05
0.0 0.025 -0.05
0.0125 0.025 -0.05
0.025 0.025 -0.05
0.0375 0.025 -0.05
0.05 0.025 -0.05
0.0625 0.025 -0.05
0.075 0.025 -0.05
0.0875 0.025 -0.05
0.1 0.025 -0.05
0.1125 0.025 -0.05
0.125 0.025 -0.05
0.1375 0.025 -0.05
0.15 0.025 -0.05
0.1625 0.025 -0.05
0.175 0.025 -0.05
0.1875 0.025 -0.05
0.2 0.025 -0.05
0.2125 0.025 -0.05
0.225 0.025 -0.05
0.2375 0.025 -0.05
0.25 0.025 -0.05
0.2625 0.025 -0.05
0.275 0.025 -0.05
0.2875 0.025 -0.05
0.3 0.025 -0.05
0.3125 0.025 -0.05
0.325 0.025 -0.05
0.3375 0.025 -0.05
0.35 0.025 -0.05
0.3625 0.025 -0.05
0.375 0.025 -0.05
0.3875 0.025 -0.05
0.4 0.025 -0.05
0.4125 0.025 -0.05
0.425 0.025 -0.05
0.4375 0.025 -0.05
0.45 0.025 -0.05
0.4625 0.025 -0.05
0.475 0.025 -0.05
0.4875 0.025 -0.05
0.5 0.025 -0.05
0.5125 0.025 -0.05
0.525 0.025 -0.05
0.5375 0.025 -0.05
0.55 0.025 -0.05
0.5625 0.025 -0.05
0.575 0.025 -0.05
0.5875 0.025 -0.05
0.6 0.025 -0.05
0.0 0.0375 -0.05
0.0125 0.0375 -0.05
0.025 0.0375 -0.05
0.0375 0.0375 -0.05
0.05 0.0375 -0.05
0.0625 0.0375 -0.05
0.075 0.0375 -0.05
0.0875 0.0375 -0.05
0.1 0.0375 -0.05
0.1125 0.0375 -0.05
0.125 0.0375 -0.05
0.1375 0.0375 -0.05
0.15 0.0375 -0.05
0.1625 0.0375 -0.05
0.175 0.0375 -0.05
0.1875 0.0375 -0.05
0.2 0.0375 -0.05
0.2125 0.0375 -0.05
0.225 0.0375 -0.05
0.2375 0.0375 -0.05
0.25 0.0375 -0.05
0.2625 0.0375 -0.05
0.275 0.0375 -0.05
0.2875 0.0375 -0.05
0.3 0.0375 -0.05
0.3125 0.0375 -0.05
0.325 0.0375 -0.05
0.3375 0.0375 -0.05
0.35 0.0375 -0.05
0.3625 0.0375 -0.05
0.375 0.0375 -0.05
0.3875 0.0375 -0.05
0.4 0.0375 -0.05
0.4125 0.0375 -0.05
0.425 0.0375 -0.05
0.4375 0.0375 -0.05
0.45 0.0375 -0.05
0.4625 0.0375 -0.05
0.475 0.0375 -0.05
0.4875 0.0375 -0.05
0.5 0.0375 -0.05
0.5125 0.0375 -0.05
0.525 0.0375 -0.05
0.5375 0.0375 -0.05
0.55 0.0375 -0.05
0.5625 0.0375 -0.05
0.575 0.0375 -0.05
0.5875 0.0375 -0.05
0.6 0.0375 -0.05
0.0 0.05 -0.05
0.0125 0.05 -0.05
0.025 0.05 -0.05
0.0375 0.05 -0.05
0.05 0.05 -0.05
0.0625 0.05 -0.05
0.075 0.05 -0.05
0.0875 0.05 -0.05
0.1 0.05 -0.05
0.1125 0.05 -0.05
0.125 0.05 -0.05
0.1375 0.05 -0.05
0.15 0.05 -0.05
0.1625 0.05 -0.05
0.175 0.05 -0.05
0.1875 0.05 -0.05
0.2 0.05 -0.05
0.2125 0.05 -0.05
0.225 0.05 -0.05
0.2375 0.05 -0.05
0.25 0.05 -0.05
0.2625 0.05 -0.05
0.275 0.05 -0.05
0.2875 0.05 -0.05
0.3 0.05 -0.05
0.3125 0.05 -0.05
0.325 0.05 -0.05
0.3375 0.05 -0.05
0.35 0.05 -0.05
0.3625 0.05 -0.05
0.375 0.05 -0.05
0.3875 0.05 -0.05
0.4 0.05 -0.05
0.4125 0.05 -0.05
0.425 0.05 -0.05
0.4375 0.05 -0.05
0.45 0.05 -0.05
0.4625 0.05 -0.05
0.475 0.05 -0.05
0.4875 0.05 -0.05
0.5 0.05 -0.05
0.5125 0.05 -0.05
0.525 0.05 -0.05
0.5375 0.05 -0.05
0.55 0.05 -0.05
0.5625 0.05 -0.05
0.575 0.05 -0.05
0.5875 0.05 -0.05
0.6 0.05 -0.05
0.0 0.0625 -0.05
0.0125 0.0625 -0.05
0.025 0.0625 -0.05
0.0375 0.0625 -0.05
0.05 0.0625 -0.05
0.0625 0.0625 -0.05
0.075 0.0625 -0.05
0.0875 0.0625 -0.05
0.1 0.0625 -0.05
0.1125 0.0625 -0.05
0.125 0.0625 -0.05
0.1375 0.0625 -0.05
0.15 0.0625 -0.05
0.1625 0.0625 -0.05
0.175 0.0625 -0.05
0.1875 0.0625 -0.05
0.2 0.0625 -0.05
0.2125 0.0625 -0.05
0.225 0.0625 -0.05
0.2375 0.0625 -0.05
0.25 0.0625 -0.05
0.2625 0.0625 -0.05
0.275 0.0625 -0.05
0.2875 0.0625 -0.05
0.3 0.0625 -0.05
0.3125 0.0625 -0.05
0.325 0.0625 -0.05
0.3375 0.0625 -0.05
0.35 0.0625 -0.05
0.3625 0.0625 -0.05
0.375 0.0625 -0.05
0.3875 0.0625 -0.05
0.4 0.0625 -0.05
0.4125 0.0625 -0.05
0.425 0.0625 -0.05
0.4375 0.0625 -0.05
0.45 0.0625 -0.05
0.4625 0.0625 -0.05
0.475 0.0625 -0.05
0.4875 0.0625 -0.05
0.5 0.0625 -0.05
0.5125 0.0625 -0.05
0.525 0.0625 -0.05
0.5375 0.0625 -0.05
0.55 0.0625 -0.05
0.5625 0.0625 -0.05
0.575 0.0625 -0.05
0.5875 0.0625 -0.05
0.6 0.0625 -0.05
0.0 0.075 -0.05
0.0125 0.075 -0.05
0.025 0.075 -0.05
0.0375 0.075 -0.05
0.05 0.075 -0.05
0.0625 0.075 -0.05
0.075 0.075 -0.05
0.0875 0.075 -0.05
0.1 0.075 -0.05
0.1125 0.075 -0.05
0.125 0.075 -0.05
0.1375 0.075 -0.05
0.15 0.075 -0.05
0.1625 0.075 -0.05
0.175 0.075 -0.05
0.1875 0.075 -0.05
0.2 0.075 -0.05
0.2125 0.075 -0.05
0.225 0.075 -0.05
0.2375 0.075 -0.05
0.25 0.075 -0.05
0.2625 0.075 -0.05
0.275 0.075 -0.05
0.2875 0.075 -0.05
0.3 0.075 -0.05
0.3125 0.075 -0.05
0.325 0.075 -0.05
0.3375 0.075 -0.05
0.35 0.075 -0.05
0.3625 0.075 -0.05
0.375 0.075 -0.05
0.3875 0.075 -0.05
0.4 0.075 -0.05
0.4125 0.075 -0.05
0.425 0.075 -0.05
0.4375 0.075 -0.05
0.45 0.075 -0.05
0.4625 0.075 -0.05
0.475 0.075 -0.05
0.4875 0.075 -0.05
0.5 0.075 -0.05
0.5125 0.075 -0.05
0.525 0.075 -0.05
0.5375 0.075 -0.05
0.55 0.075 -0.05
0.5625 0.075 -0.05
0.575 0.075 -0.05
0.5875 0.075 -0.05
0.6 0.075 -0.05
0.0 0.0875 -0.05
0.0125 0.0875 -0.05
0.025 0.0875 -0.05
0.0375 0.0875 -0.05
0.05 0.0875 -0.05
0.0625 0.0875 -0.05
0.075 0.0875 -0.05
0.0875 0.0875 -0.05
0.1 0.0875 -0.05
0.1125 0.0875 -0.05
0.125 0.0875 -0.05
0.1375 0.0875 -0.05
0.15 0.0875 -0.05
0.1625 0.0875 -0.05
0.175 0.0875 -0.05
0.1875 0.0875 -0.05
0.2 0.0875 -0.05
0.2125 0.0875 -0.05
0.225 0.0875 -0.05
0.2375 0.0875 -0.05
0.25 0.0875 -0.05
0.2625 0.0875 -0.05
0.275 0.0875 -0.05
0.2875 0.0875 -0.05
0.3 0.0875 -0.05
0.3125 0.0875 -0.05
0.325 0.0875 -0.05
0.3375 0.0875 -0.05
0.35 0.0875 -0.05
0.3625 0.0875 -0.05
0.375 0.0875 -0.05
0.3875 0.0875 -0.05
0.4 0.0875 -0.05
0.4125 0.0875 -0.05
0.425 0.0875 -0.05
0.4375 0.0875 -0.05
0.45 0.0875 -0.05
0.4625 0.0875 -0.05
0.475 0.0875 -0.05
0.4875 0.0875 -0.05
0.5 0.0875 -0.05
0.5125 0.0875 -0.05
0.525 0.0875 -0.05
0.5375 0.0875 -0.05
0.55 0.0875 -0.05
0.5625 0.0875 -0.05
0.575 0.0875 -0.05
0.5875 0.0875 -0.05
0.6 0.0875 -0.05
0.0 0.1 -0.05
0.0125 0.1 -0.05
0.025 0.1 -0.05
0.0375 0.1 -0.05
0.05 0.1 -0.05
0.0625 0.1 -0.05
0.075 0.1 -0.05
0.0875 0.1 -0.05
0.1 0.1 -0.05
0.1125 0.1 -0.05
0.125 0.1 -0.05
0.1375 0.1 -0.05
0.15 0.1 -0.05
0.1625 0.1 -0.05
0.175 0.1 -0.05
0.1875 0.1 -0.05
0.2 0.1 -0.05
0.2125 0.1 -0.05
0.225 0.1 -0.05
0.2375 0.1 -0.05
0.25 0.1 -0.05
0.2625 0.1 -0.05
0.275 0.1 -0.05
0.2875 0.1 -0.05
0.3 0.1 -0.05
0.3125 0.1 -0.05
0.325 0.1 -0.05
0.3375 0.1 -0.05
0.35 0.1 -0.05
0.3625 0.1 -0.05
0.375 0.1 -0.05
0.3875 0.1 -0.05
0.4 0.1 -0.05
0.4125 0.1 -0.05
0.425 0.1 -0.05
0.4375 0.1 -0.05
0.45 0.1 -0.05
0.4625 0.1 -0.05
0.475 0.1 -0.05
0.4875 0.1 -0.05
0.5 0.1 -0.05
0.5125 0.1 -0.05
0.525 0.1 -0.05
0.5375 0.1 -0.05
0.55 0.1 -0.05
0.5625 0.1 -0.05
0.575 0.1 -0.05
0.5875 0.1 -0.05
0.6 0.1 -0.05
0.0 0.1125 -0.05
0.0125 0.1125 -0.05
0.025 0.1125 -0.05
0.0375 0.1125 -0.05
0.05 0.1125 -0.05
0.0625 0.1125 -0.05
0.075 0.1125 -0.05
0.0875 0.1125 -0.05
0.1 0.1125 -0.05
0.1125 0.1125 -0.05
0.125 0.1125 -0.05
0.1375 0.1125 -0.05
0.15 0.1125 -0.05
0.1625 0.1125 -0.05
0.175 0.1125 -0.05
0.1875 0.1125 -0.05
0.2 0.1125 -0.05
0.2125 0.1125 -0.05
0.225 0.1125 -0.05
0.2375 0.1125 -0.05
0.25 0.1125 -0.05
0.2625 0.1125 -0.05
0.275 0.1125 -0.05
0.2875 0.1125 -0.05
0.3 0.1125 -0.05
0.3125 0.1125 -0.05
0.325 0.1125 -0.05
0.3375 0.1125 -0.05
0.35 0.1125 -0.05
0.3625 0.1125 -0.05
0.375 0.1125 -0.05
0.3875 0.1125 -0.05
0.4 0.1125 -0.05
0.4125 0.1125 -0.05
0.425 0.1125 -0.05
0.4375 0.1125 -0.05
0.45 0.1125 -0.05
0.4625 0.1125 -0.05
0.475 0.1125 -0.05
0.4875 0.1125 -0.05
0.5 0.1125 -0.05
0.5125 0.1125 -0.05
0.525 0.1125 -0.05
0.5375 0.1125 -0.05
0.55 0.1125 -0.05
0.5625 0.1125 -0.05
0.575 0.1125 -0.05
0.5875 0.1125 -0.05
0.6 0.1125 -0.05
0.0 0.125 -0.05
0.0125 0.125 -0.05
0.025 0.125 -0.05
0.0375 0.125 -0.05
0.05 0.125 -0.05
0.0625 0.125 -0.05
0.075 0.125 -0.05
0.0875 0.125 -0.05
0.1 0.125 -0.05
0.1125 0.125 -0.05
0.125 0.125 -0.05
0.1375 0.125 -0.05
0.15 0.125 -0.05
0.1625 0.125 -0.05
0.175 0.125 -0.05
0.1875 0.125 -0.05
0.2 0.125 -0.05
0.2125 0.125 -0.05
0.225 0.125 -0.05
0.2375 0.125 -0.05
0.25 0.125 -0.05
0.2625 0.125 -0.05
0.275 0.125 -0.05
0.2875 0.125 -0.05
0.3 0.125 -0.05
0.3125 0.125 -0.05
0.325 0.125 -0.05
0.3375 0.125 -0.05
0.35 0.125 -0.05
0.3625 0.125 -0.05
0.375 0.125 -0.05
0.3875 0.125 -0.05
0.4 0.125 -0.05
0.4125 0.125 -0.05
0.425 0.125 -0.05
0.4375 0.125 -0.05
0.45 0.125 -0.05
0.4625 0.125 -0.05
0.475 0.125 -0.05
0.4875 0.125 -0.05
0.5 0.125 -0.05
0.5125 0.125 -0.05
0.525 0.125 -0.05
0.5375 0.125 -0.05
0.55 0.125 -0.05
0.5625 0.125 -0.05
0.575 0.125 -0.05
0.5875 0.125 -0.05
0.6 0.125 -0.05
0.0 0.1375 -0.05
0.0125 0.1375 -0.05
0.025 0.1375 -0.05
0.0375 0.1375 -0.05
0.05 0.1375 -0.05
0.0625 0.1375 -0.05
0.075 0.1375 -0.05
0.0875 0.1375 -0.05
[...]
CELL_DATA 16128
SCALARS P float 1
LOOKUP_TABLE default
99999.99870217999
100000.00141091594
99999.99767862572
100000.00257658112
99999.99664561814
100000.00277987862
99999.99901889906
99999.99414790672
100000.02206990571
99999.93953831411
100000.14546093893
99999.66591707978
100000.75392516113
99998.28901835438
100003.95496827931
99990.58712018326
100023.12343926713
99941.26721627224
100153.64837793769
99589.58148999569
101129.83256350578
96937.84947649087
109024.94263086852
76937.83444664038
210585.27307221957
664649.6466682893
1.0155477609811731e6
1.0515561542458674e6
1.0585980677930985e6
1.0713745457859251e6
1.0822882958619208e6
1.0931654105687258e6
1.1034920803283732e6
1.1134164238750627e6
1.1228771350575471e6
1.1319075177376922e6
1.1404475450556148e6
1.1485553097068733e6
1.1560748410264389e6
1.1631982400246586e6
1.169495459234827e6
1.1756009611836309e6
1.18027961688274e6
1.185550803151915e6
1.1877366090886337e6
1.193140566117077e6
1.1905754068761703e6
1.199546317338181e6
99999.998789966
100000.00130961226
99999.99796375775
100000.00209748744
99999.99766273513
100000.00090433483
100000.00265028026
99999.9874165466
100000.03452520806
99999.91702469505
100000.18539685055
99999.5970079076
100000.868664443
99998.10778910219
100004.21813303552
99990.26538719592
100023.35664914106
99941.64305600549
100151.26055549436
99597.73016526415
101106.97920164328
96995.24496462052
108875.79633467377
77208.37909603996
208143.03306584718
662014.1139142951
1.0176239062948937e6
1.0562024711217768e6
1.0636081245427164e6
1.076792249946436e6
1.087872644966854e6
1.0988673088423498e6
1.1092822051911072e6
1.1192922430537534e6
1.1288435555272822e6
1.1379725651954305e6
1.1466186632650287e6
1.1548381451114488e6
1.1624716245797158e6
1.1697081290418368e6
1.176111744932809e6
1.1823147074008319e6
1.1870708079123895e6
1.1924057161279386e6
1.1946114460197906e6
1.2000432023539727e6
1.1973892316082497e6
1.2064594135233115e6
99999.99819374343
100000.00244973571
99999.99607545808
100000.00550474686
99999.99179981543
100000.01128558593
99999.98451952694
100000.01938337673
99999.97832653245
100000.01618210005
100000.01037930865
99999.90659138591
100000.3202086074
99999.08197632922
100002.48257026247
99993.37432820116
100017.74889007975
99951.89423614269
100132.18383617782
99634.21386467566
101033.54985327138
97144.91026999567
108508.99480935065
77896.57726248036
201068.28453347646
649987.9446693631
1.0109438970859826e6
1.0532066798968173e6
1.059646144523144e6
1.0726826502194912e6
1.0835294053306547e6
1.094349659359032e6
1.1045953310153794e6
1.1144388386160084e6
1.1238200388118054e6
1.1327740018085989e6
1.1412414048091667e6
1.1492794681588274e6
1.1567335396242465e6
1.1637930256759233e6
1.1700312485566332e6
1.1760765812466324e6
1.1807003182644208e6
1.1859152356521264e6
1.1880375713988405e6
1.193417805631521e6
1.1906855112171904e6
1.1999119633107963e6
99999.99739704622
100000.00398225855
99999.99354771433
100000.01005913084
99999.98398282775
100000.02508086711
99999.96051133082
100000.06152011144
99999.90462454771
100000.14545082237
99999.78370957052
100000.30469561834
99999.62005382476
100000.31709975205
100000.29407696871
99997.28507729755
100010.67415816573
99964.97569756983
100107.25481126976
99683.76331547294
100928.2283981516
97373.52703990556
107913.25269581981
79105.04723681226
190763.38184426917
633261.7734995236
1.0044185646054969e6
1.0534695854443002e6
1.0591403953719584e6
1.0724627136736026e6
1.0833296460579997e6
1.0941784745451938e6
1.104423619827401e6
1.1142590775527623e6
1.123629980009266e6
1.1325765315282706e6
1.1410433478494883e6
1.1490888729669072e6
1.156561698329588e6
1.1636489837987667e6
1.1699284406273982e6
1.1760203295202423e6
1.1807023834356745e6
1.1859738893320302e6
1.18814560671732e6
1.1935962967899411e6
1.1908018891954336e6
1.2002807095766678e6
99999.99652825689
100000.00564879471
99999.99080852124
100000.01497686499
99999.97557211155
100000.03986710099
99999.93487462275
100000.1063436447
99999.82650682019
100000.28201047317
99999.54489798557
100000.7234491781
99998.88345252244
100001.62037071394
99997.9678215351
100001.49884013951
100002.8765659304
99979.88515627194
100077.48265389683
99746.36981135134
100786.49419544183
97699.16588269707
107028.80619599033
81017.35134092494
177391.9029195269
610000.3755301415
993743.7542303278
1.0520599631839627e6
1.0563148847721156e6
1.0696409014470696e6
1.0802701140192172e6
1.0909330450056742e6
1.100985267481168e6
1.1106288399193052e6
1.1198062602096847e6
1.12855754166733e6
1.1368290704850405e6
1.1446792032716156e6
1.1519610127825919e6
1.1588595339435195e6
1.1649615736680685e6
1.1708793435967262e6
1.175407758485439e6
1.1805316850081221e6
1.1825753503980262e6
1.1879508347281201e6
1.1849780916571743e6
1.1947181794294599e6
99999.99572514457
100000.00717466965
99999.98831089896
100000.01943138335
99999.96799603326
100000.05311042618
99999.91203670499
100000.14608288748
99999.75753555601
100000.40223528814
99999.33490756206
100001.09216251639
99998.23160268932
100002.7856034706
99995.85069113957
100005.44014334692
99995.28792974888
99995.16311796052
100044.99083617526
99819.34007768772
100610.73088189034
98126.12584214951
105831.79744772543
83765.34769219701
161762.55745694877
580864.228287956
979842.1347026376
1.050969710267196e6
1.053789248080272e6
1.0672583619545514e6
1.0777495336690752e6
1.0883047572983133e6
1.0982303118246144e6
1.1077403867459837e6
1.116780557837142e6
1.125394146793568e6
1.1335324162463746e6
1.141255739926994e6
1.148423702916445e6
1.1552203339709272e6
1.1612426700696398e6
1.1670946088314955e6
1.1715858514112649e6
1.1766856933329015e6
1.1787151315340595e6
1.1841347562273012e6
1.1810341929475262e6
1.1911503066930634e6
99999.99509997053
100000.0083382478
99999.98641880136
100000.02276097635
99999.96239464938
100000.06279022085
99999.89553045004
100000.17451768038
99999.70862998662
100000.48692637986
99999.18748016984
100001.35150432897
99997.76884392663
100003.62923582838
99994.26553079303
100008.54126962801
99988.90308411777
100009.07291283619
100012.76756915172
99897.60607660515
100409.07030456571
98644.9867115907
104337.86948206919
87417.8918279714
144642.36906058464
545689.3648629374
961360.9638364826
1.0491541610234624e6
1.0504408902067353e6
1.0639035550571943e6
1.074154709342515e6
1.0844919646960958e6
1.0941879705865968e6
1.1034604181057138e6
1.1122567071398247e6
1.1206204158420928e6
1.128505774624649e6
1.135973007138718e6
1.1428865772686931e6
1.1494272677977516e6
1.1552012508836074e6
1.1608027676385276e6
1.1650579775884512e6
1.169926669989888e6
1.1717316709859162e6
1.1770199077118668e6
1.173612339325471e6
1.184123112049998e6
99999.99471811722
100000.00901406375
99999.98533663356
100000.02459965824
99999.95939405233
100000.06780270777
99999.88728623216
100000.18823040591
99999.68586211222
100000.52519914012
99999.12227926089
100001.46560939388
99997.56127304028
100004.02805964272
99993.44499543533
100010.35679678654
99984.58875523454
100019.89898116842
99984.27999411432
99974.12789827365
100196.26942286597
99226.69286685194
102625.07902525453
91891.0732495114
127043.53036195552
504820.84716744337
937666.1796249864
1.0467149467239287e6
1.0468204595187956e6
1.060194414319014e6
1.0702311129754225e6
1.0803432898737993e6
1.0898046293031606e6
1.098828624500485e6
1.1073678960353928e6
1.1154671450373658e6
1.1230856909897686e6
1.1302861012537684e6
1.136941388746697e6
1.1432337312501352e6
1.1487845018368606e6
1.1541845601762808e6
1.1582817178709563e6
1.1630291192872208e6
1.164740199779006e6
1.170049886498126e6
1.1664279123186297e6
1.1774934380604674e6
99999.99458924361
100000.00919168246
99999.98507728615
100000.02493888108
99999.9589934822
100000.06817549185
99999.88722625478
100000.18738270343
99999.68896218098
100000.51737481175
99999.13927192152
100001.4330149248
99997.61543797009
100003.96065753922
99993.45129707182
100010.7178748568
99982.7905578344
100026.49636101458
99962.47803428525
100041.44120015387
99991.96769602627
99822.21451289002
100837.72497847486
96890.14874385575
110137.68115734804
458729.7315500087
907685.9151132971
1.0430744622121381e6
1.0428017090293834e6
1.0558530084438508e6
1.0656519114719946e6
1.0754681512885112e6
1.084629546227276e6
1.0933324237659439e6
1.1015357762890444e6
1.1092825752418796e6
1.1165344230081795e6
1.1233522045176188e6
1.1296117394470708e6
1.135489596126896e6
1.1406121395568335e6
1.1455589632184613e6
1.149186559899874e6
1.1534512318803335e6
1.1546462934744477e6
1.159589987715724e6
1.1553250049545662e6
1.1669286192038653e6
99999.9946736833
100000.00896399943
99999.98548055891
100000.02409614729
99999.96061226126
100000.06499879833
99999.89334871384
100000.17564392423
99999.71127576185
100000.4754103687
99999.21723346434
100001.29080174776
99997.8680055024
100003.5315817459
99994.12195178414
100009.84966997991
99983.28568374414
100028.79132868379
99948.82152474295
100093.45027840699
99817.27707835326
100367.32206437204
99173.86245882933
101873.83022653226
95259.70146118572
408277.9828483668
870416.3211882858
1.0376223872335139e6
1.0385719084213788e6
1.05099077180106e6
1.0605726383349127e6
1.0700490919684044e6
1.0788732026668245e6
1.087209981575132e6
1.0950278772792867e6
1.1023682081808469e6
1.1091967514395698e6
1.1155761980162275e6
1.1213915165820257e6
1.1268237072390288e6
1.1315197243322842e6
1.1360660672360696e6
1.139353016947359e6
1.143348828310805e6
1.1443404979000909e6
1.1492755493860124e6
1.1446999133784801e6
1.1571353597441548e6
99999.99490262225
100000.00848577874
99999.98628202808
100000.02258677765
99999.96331146927
100000.0600315648
99999.90240872465
100000.15901748484
99999.74174974154
100000.41959468374
99999.31910237788
100001.10622186348
99998.19811824469
100002.95486248378
99995.08708120309
100008.36625697819
99985.13448684588
100027.9895541627
99942.6111532891
100127.26055292165
99689.71819331082
100794.71128051268
97849.43948727546
106101.99168139944
83792.08719841235
354727.99487726676
824847.4539923166
1.0293567592255968e6
1.034207461843668e6
1.0455629481790188e6
1.0549452379210806e6
1.0640209524500251e6
1.0724510544486328e6
1.0803538453101595e6
1.0877076099885674e6
1.0945480458635176e6
1.100839502443713e6
1.106638100633255e6
1.1118239105370007e6
1.1165637426391747e6
1.120493308685738e6
1.1241755414969523e6
1.1264762383516175e6
1.1293759013448039e6
1.1290742762172746e6
1.132897364017179e6
1.1266819892076233e6
1.1397140710945034e6
99999.99520605577
100000.00791327412
99999.98721524759
100000.02092836617
99999.96614489525
100000.05505373831
99999.91109520862
100000.14369576582
99999.76882133393
100000.37152198453
99999.40460472013
100000.9541850606
99998.46711024542
100002.48502987812
99995.88614463975
100007.08080418262
99986.96433341574
100026.21595189403
99941.20253004774
100143.88631534402
99618.78778952485
101050.1496485043
97049.77035846998
108791.58543849102
76940.30471858352
299783.8841985205
770182.9399506513
1.0169402816425351e6
1.029806888570512e6
1.0396050768565083e6
1.0488136652872635e6
1.0574364039878629e6
1.0654220679911983e6
1.072830967429011e6
1.0796524621985287e6
1.0859166020092503e6
1.0915880168405555e6
1.0967209272058448e6
1.1012012219469845e6
1.1052000406609615e6
1.1083782621419285e6
1.1113180909131549e6
1.1129483826082675e6
1.115284233401402e6
1.114589420359311e6
1.1182782727577675e6
1.1117165736615015e6
1.1258575305798182e6
99999.99553884349
100000.00734525514
99999.98811313123
100000.01944230689
99999.96852556452
100000.05117097263
99999.91733714605
100000.1335947008
99999.78506636391
100000.34532811267
99999.44676049033
100000.88624432254
99998.57656111744
100002.30918205476
99996.166410753
100006.6471543679
99987.59646317146
100025.477406382
99941.52207260311
100146.67009543678
99605.22638611107
101105.9783419846
96881.3197890994
109381.10263009545
75391.29847383304
245529.2531396727
706041.0449929603
998655.8872237128
1.0253701721674991e6
1.0331552069051897e6
1.042192133179033e6
1.050309550886975e6
1.057792592528706e6
1.0646380821136164e6
1.070842742221371e6
1.0764254734613271e6
1.0813413433287228e6
1.0856273707242215e6
1.0891472766235576e6
1.0920351237550448e6
1.0938980305938702e6
1.0952444948880386e6
1.0948688503952995e6
1.0947430096301695e6
1.0907717080135948e6
1.0910929167142487e6
1.0795296175429574e6
1.0935748310435119e6
99999.99589465583
100000.00678916753
99999.98896737912
100000.01813393287
99999.9704555855
100000.04836358367
99999.92118526154
100000.12862395612
99999.7905963252
100000.34101784999
99999.44498164246
100000.90494112301
99998.5183502253
100002.44999684939
99995.8689871931
100007.2093869969
99986.68871607613
100026.54509709694
99941.83744512746
100139.1774381181
99641.25666240924
100975.79969240975
97309.09513696664
107968.41208823962
78921.20044658952
194303.27807930758
632666.3626582308
972453.4784955424
1.0207140263779851e6
1.0263047809302346e6
1.0351158277515464e6
1.042684223743894e6
1.0496074627322226e6
1.055825519900225e6
1.0613382880819028e6
1.066152926585186e6
1.07021552995073e6
1.0735502717815344e6
1.0760136792591724e6
1.077730154120744e6
1.078325397727673e6
1.0783218477717226e6
1.076635174210262e6
1.075238922061076e6
1.0704717600520453e6
1.069898570834456e6
1.0583314126335853e6
1.0716175188688207e6
99999.99630138956
100000.00616913813
99999.98991601379
100000.01671318442
99999.97249779041
100000.04552226992
99999.92478735214
100000.12464894482
99999.79330856304
100000.34363246144
99999.42737436296
100000.95801825236
99998.38841168127
100002.73445088147
99995.29771075553
100008.2556567713
99985.03694266424
100028.36791868514
99942.85855602959
100123.43344723425
99713.25198296178
100713.21930638007
98153.62170426486
105163.64909646555
86361.38446295922
148794.9641054373
551171.7488922047
935984.5158841695
1.0152594289062062e6
1.0191796950752694e6
1.0276115068833291e6
1.0345986616929765e6
1.0409038592323656e6
1.0464299807296167e6
1.0511702304708231e6
1.0551138049029796e6
1.0581850983866737e6
1.0603745723541193e6
1.0614898913039283e6
1.0615764615505303e6
1.0601287048896092e6
1.0574624346793348e6
1.0520983709135507e6
1.0455817471654263e6
1.0329190599183266e6
1.0223060934942041e6
992956.5899545476
999446.7802955766
99999.99679920764
100000.0053756421
99999.99115797291
100000.01476161112
99999.97547017838
100000.04102109461
99999.93133084117
100000.11544196824
99999.80531100868
100000.32975647978
99999.43899346626
100000.95936858168
99998.349916727
100002.85708595363
99995.01396093043
100008.78387596116
99984.3405587832
100028.33383225584
99947.70625767682
100098.91392313024
99806.53071979537
100393.50494642589
99160.93049401286
101910.64120840454
95552.83279441603
112087.74116225167
463838.3276281286
886727.1878119103
1.0077555603144134e6
1.0119204257651059e6
1.019700119960144e6
1.0260948639403944e6
1.0317322322782796e6
1.0365134980144558e6
1.040416472780287e6
1.0434112095866087e6
1.0453994477428757e6
1.0463391160696008e6
1.0460027710534763e6
1.0443814745262408e6
1.0409436831266192e6
1.0359279057394848e6
1.0280011925648213e6
1.0185141702306013e6
1.0037612554858453e6
988905.8321820003
960776.2183249674
927725.6060441115
99999.99741051868
100000.00433666313
99999.99282873729
100000.01198085066
99999.97997820261
100000.03361845491
99999.94332410443
100000.09596648846
99999.83666069072
100000.27942949114
99999.519255662
100000.83166676541
99998.55338222312
100002.52820569929
99995.56618505748
100007.78312962511
99986.38146704374
100023.56419319496
99960.20485188236
100063.6144128687
99909.54577803015
100086.25628699745
100070.3144090512
99160.7242605782
103685.45687265378
87277.38791473395
374426.5533474179
822415.7462649146
996012.6688459488
1.0046220544484255e6
1.0113963423187437e6
1.0172121157885942e6
1.022145405412607e6
1.0261401509112482e6
1.0291510977413586e6
1.0311261182051048e6
1.0319355989759724e6
1.031489796597757e6
1.0294925846208021e6
1.025816002559336e6
1.0197451622633841e6
1.0111270207935593e6
997971.8675230866
980032.3526589992
950588.7103845283
907766.6696893072
822349.9016273496
671058.5177003116
99999.9981161097
100000.0030767383
99999.99489540243
100000.00840629991
99999.9860028316
100000.02326828959
99999.96100884199
100000.06549167368
99999.88925321112
100000.18812897531
99999.67845284629
100000.55229510732
99999.04714979077
100001.64725195822
99997.15728641496
100004.86080987783
99991.8731495817
100012.9157454268
99981.7058504998
100017.94488651422
100012.14417723939
99841.78086371355
100686.91519241242
97553.47644169643
108248.96869090853
76086.05503449081
287970.07934675564
741964.4544079958
976927.7547562359
997284.4892967567
1.0027494897325016e6
1.0080057657920282e6
1.0122138674576158e6
1.0153946815957708e6
1.0174787460426028e6
1.0183917691811649e6
1.0179732246407779e6
1.0160833939492174e6
1.0123660168736832e6
1.0065842721411709e6
997886.1149699697
985854.0317462485
968206.0960027219
944013.5829315427
906330.9562215789
851772.4102019792
756730.1280952193
601161.4469623817
99999.9988500096
100000.00173221828
99999.99712758034
100000.00447055214
99999.99276841579
100000.01139774658
99999.98177805936
100000.02881065136
99999.9542728825
100000.07210139887
99999.88661986779
100000.17655183414
99999.72917323679
100000.40250242576
99999.44011642697
100000.65721593583
99999.6340264084
99998.58164613943
100008.10343130234
99969.79593775613
100098.46201906989
99693.71218418858
100923.96842621053
97263.47606435174
108336.98933170301
77305.73272003762
209866.39232476262
646279.0886956421
946786.3869440389
989692.2498449784
993893.9634730243
998561.8135075812
1.0020289525947872e6
1.0043777094352109e6
1.0055170016705634e6
1.0053520791346104e6
1.0036907078319546e6
1.0003536482172364e6
994928.3825388493
987097.0727337577
975912.108076857
960808.499871438
939398.4174956469
910621.2966579444
867919.7101813074
809049.0412821524
715055.8445652124
582432.863822836
99999.99951735961
100000.00051046962
99999.99916729445
100000.00086653851
99999.99899445836
100000.00043247372
100000.00106007169
99999.99459335524
100000.01524654387
99999.96272976679
100000.08385054165
99999.8189285396
100000.38056824778
99999.21193179522
100001.61917310968
99996.67645583018
100006.85396263834
99985.70370259779
100030.32540695749
99934.05850614478
100147.43653832348
99658.37602328268
100818.83206692361
97977.54781124573
105302.54668280398
86715.40122328732
145423.9631857
538418.662216427
901351.239083846
980942.2771151725
985013.6270239875
988972.8376969086
991686.9294534501
993195.9212989098
993392.1403964363
992160.9030463542
989285.1851733994
984554.848219997
977520.9372170677
967820.3900498486
954463.8478220481
936861.2978041207
912658.0457846493
881038.6743773128
835992.3012563456
777215.9494473188
688909.2750012871
578390.5618204633
100000.00002801715
99999.99960970497
100000.0006695922
99999.99826552709
100000.00343143997
99999.99275440806
100000.01433361894
99999.97147563982
100000.05563997116
99999.89176705938
100000.2090185678
99999.59727729467
100000.77400784727
99998.51341602109
100002.85450693769
99994.51584306174
100010.54305724509
99979.71744892884
100039.00203437274
99925.12688175438
100142.83233968764
99730.44339400511
100495.68841407019
99129.21664335373
101393.76338945497
98408.62427044583
100195.76064164341
424131.11932699126
836057.2899698439
968593.941929205
976177.4722932123
979286.5491056986
981260.0900905458
981943.4785816229
981222.3237040958
978964.0352017304
974937.7917473299
968913.5234197093
960426.3373870243
949101.901371499
933957.6913539704
914458.8229502743
888387.368329874
855291.037903407
809858.1771939348
753252.0045811121
672700.3350229937
579228.7049995486
100000.00033012415
99999.99913860395
100000.00144469242
99999.99703075745
100000.00540965975
99999.98962552285
100000.01922986073
99999.96393407405
100000.06697206528
99999.87533941705
100000.23137907956
99999.57031317294
100000.79734808055
99998.5205554008
100002.7421487573
99994.92804712302
100009.33769200357
99982.96038250827
100030.5699448792
99946.85270292418
100086.67792941183
99877.17597727304
100105.95844589517
100177.19605974083
98498.43833366958
106522.15989840787
78049.63412197096
312337.74753238854
747851.8256139811
948300.8839447479
967200.752211247
969519.5060403371
970802.2567789357