# vtk DataFile Version 2.0
JuliaCFD
ASCII
DATASET UNSTRUCTURED_GRID

POINTS 32898 float
0.0 0.0 -0.05
0.0125 0.0 -0.05
0.025 0.0 -0.05
0.0375 0.0 -0.05
0.05 0.0 -0.05
0.0625 0.0 -0.05
0.075 0.0 -0.05
0.0875 0.0 -0.05
0.1 0.0 -0.05
0.1125 0.0 -0.05
0.125 0.0 -0.05
0.1375 0.0 -0.05
0.15 0.0 -0.05
0.1625 0.0 -0.05
0.175 0.0 -0.05
0.1875 0.0 -0.05
0.2 0.0 -0.05
0.2125 0.0 -0.05
0.225 0.0 -0.05
0.2375 0.0 -0.05
0.25 0.0 -0.05
0.2625 0.0 -0.05
0.275 0.0 -0.05
0.2875 0.0 -0.05
0.3 0.0 -0.05
0.3125 0.0 -0.05
0.325 0.0 -0.05
0.3375 0.0 -0.05
0.35 0.0 -0.05
0.3625 0.0 -0.05
0.375 0.0 -0.05
0.3875 0.0 -0.05
0.4 0.0 -0.05
0.4125 0.0 -0.05
0.425 0.0 -0.05
0.4375 0.0 -0.05
0.45 0.0 -0.05
0.4625 0.0 -0.05
0.475 0.0 -0.05
0.4875 0.0 -0.05
0.5 0.0 -0.05
0.5125 0.0 -0.05
0.525 0.0 -0.05
0.5375 0.0 -0.05
0.55 0.0 -0.05
0.5625 0.0 -0.05
0.575 0.0 -0.05
0.5875 0.0 -0.05
0.6 0.0 -0.05
0.0 0.0125 -0.05
0.0125 0.0125 -0.05
0.025 0.0125 -0.05
0.0375 0.0125 -0.05
0.05 0.0125 -0.05
0.0625 0.0125 -0.05
0.075 0.0125 -0.05
0.0875 0.0125 -0.05
0.1 0.0125 -0.05
0.1125 0.0125 -0.05
0.125 0.0125 -0.05
0.1375 0.0125 -0.05
0.15 0.0125 -0.05
0.1625 0.0125 -0.05
0.175 0.0125 -0.05
0.1875 0.0125 -0.05
0.2 0.0125 -0.05
0.2125 0.0125 -0.05
0.225 0.0125 -0.05
0.2375 0.0125 -0.05
0.25 0.0125 -0.05
0.2625 0.0125 -0.05
0.275 0.0125 -0.05
0.2875 0.0125 -0.05
0.3 0.0125 -0.05
0.3125 0.0125 -0.05
0.325 0.0125 -0.05
0.3375 0.0125 -0.05
0.35 0.0125 -0.05
0.3625 0.0125 -0.05
0.375 0.0125 -0.05
0.3875 0.0125 -0.05
0.4 0.0125 -0.05
0.4125 0.0125 -0.05
0.425 0.0125 -0.05
0.4375 0.0125 -0.05
0.45 0.0125 -0.05
0.4625 0.0125 -0.05
0.475 0.0125 -0.05
0.4875 0.0125 -0.05
0.5 0.0125 -0.05
0.5125 0.0125 -0.05
0.525 0.0125 -0.05
0.5375 0.0125 -0.05
0.55 0.0125 -0.05
0.5625 0.0125 -0.05
0.575 0.0125 -0.05
0.5875 0.0125 -0.05
0.6 0.0125 -0.05
0.0 0.025 -0.05
0.0125 0.025 -0.05
0.025 0.025 -0.05
0.0375 0.025 -0.05
0.05 0.025 -0.05
0.0625 0.025 -0.05
0.075 0.025 -0.05
0.0875 0.025 -0.05
0.1 0.025 -0.05
0.1125 0.025 -0.05
0.125 0.025 -0.05
0.1375 0.025 -0.05
0.15 0.025 -0.05
0.1625 0.025 -0.05
0.175 0.025 -0.05
0.1875 0.025 -0.05
0.2 0.025 -0.05
0.2125 0.025 -0.05
0.225 0.025 -0.05
0.2375 0.025 -0.05
0.25 0.025 -0.05
0.2625 0.025 -0.05
0.275 0.025 -0.05
0.2875 0.025 -0.05
0.3 0.025 -0.05
0.3125 0.025 -0.05
0.325 0.025 -0.05
0.3375 0.025 -0.05
0.35 0.025 -0.05
0.3625 0.025 -0.05
0.375 0.025 -0.05
0.3875 0.025 -0.05
0.4 0.025 -0.05
0.4125 0.025 -0.05
0.425 0.025 -0.05
0.4375 0.025 -0.05
0.45 0.025 -0.05
0.4625 0.025 -0.05
0.475 0.025 -0.05
0.4875 0.025 -0.05
0.5 0.025 -0.05
0.5125 0.025 -0.05
0.525 0.025 -0.05
0.5375 0.025 -0.05
0.55 0.025 -0.05
0.5625 0.025 -0.05
0.575 0.025 -0.05
0.5875 0.025 -0.05
0.6 0.025 -0.05
0.0 0.0375 -0.05
0.0125 0.0375 -0.05
0.025 0.0375 -0.05
0.0375 0.0375 -0.05
0.05 0.0375 -0.05
0.0625 0.0375 -0.05
0.075 0.0375 -0.05
0.0875 0.0375 -0.05
0.1 0.0375 -0.05
0.1125 0.0375 -0.05
0.125 0.0375 -0.05
0.1375 0.0375 -0.05
0.15 0.0375 -0.05
0.1625 0.0375 -0.05
0.175 0.0375 -0.05
0.1875 0.0375 -0.05
0.2 0.0375 -0.05
0.2125 0.0375 -0.05
0.225 0.0375 -0.05
0.2375 0.0375 -0.05
0.25 0.0375 -0.05
0.2625 0.0375 -0.05
0.275 0.0375 -0.05
0.2875 0.0375 -0.05
0.3 0.0375 -0.05
0.3125 0.0375 -0.05
0.325 0.0375 -0.05
0.3375 0.0375 -0.05
0.35 0.0375 -0.05
0.3625 0.0375 -0.05
0.375 0.0375 -0.05
0.3875 0.0375 -0.05
0.4 0.0375 -0.05
0.4125 0.0375 -0.05
0.425 0.0375 -0.05
0.4375 0.0375 -0.05
0.45 0.0375 -0.05
0.4625 0.0375 -0.05
0.475 0.0375 -0.05
0.4875 0.0375 -0.05
0.5 0.0375 -0.05
0.5125 0.0375 -0.05
0.525 0.0375 -0.05
0.5375 0.0375 -0.05
0.55 0.0375 -0.05
0.5625 0.0375 -0.05
0.575 0.0375 -0.05
0.5875 0.0375 -0.05
0.6 0.0375 -0.05
0.0 0.05 -0.05
0.0125 0.05 -0.05
0.025 0.05 -0.05
0.0375 0.05 -0.05
0.05 0.05 -0.05
0.0625 0.05 -0.05
0.075 0.05 -0.05
0.0875 0.05 -0.05
0.1 0.05 -0.05
0.1125 0.05 -0.05
0.125 0.05 -0.05
0.1375 0.05 -0.05
0.15 0.05 -0.05
0.1625 0.05 -0.05
0.175 0.05 -0.05
0.1875 0.05 -0.05
0.2 0.05 -0.05
0.2125 0.05 -0.05
0.225 0.05 -0.05
0.2375 0.05 -0.05
0.25 0.05 -0.05
0.2625 0.05 -0.05
0.275 0.05 -0.05
0.2875 0.05 -0.05
0.3 0.05 -0.05
0.3125 0.05 -0.05
0.325 0.05 -0.05
0.3375 0.05 -0.05
0.35 0.05 -0.05
0.3625 0.05 -0.05
0.375 0.05 -0.05
0.3875 0.05 -0.05
0.4 0.05 -0.05
0.4125 0.05 -0.05
0.425 0.05 -0.05
0.4375 0.05 -0.05
0.45 0.05 -0.05
0.4625 0.05 -0.05
0.475 0.05 -0.05
0.4875 0.05 -0.05
0.5 0.05 -0.05
0.5125 0.05 -0.05
0.525 0.05 -0.05
0.5375 0.05 -0.05
0.55 0.05 -0.05
0.5625 0.05 -0.05
0.575 0.05 -0.05
0.5875 0.05 -0.05
0.6 0.05 -0.05
0.0 0.0625 -0.05
0.0125 0.0625 -0.05
0.025 0.0625 -0.05
0.0375 0.0625 -0.05
0.05 0.0625 -0.05
0.0625 0.0625 -0.05
0.075 0.0625 -0.05
0.0875 0.0625 -0.05
0.1 0.0625 -0.05
0.1125 0.0625 -0.05
0.125 0.0625 -0.05
0.1375 0.0625 -0.05
0.15 0.0625 -0.05
0.1625 0.0625 -0.05
0.175 0.0625 -0.05
0.1875 0.0625 -0.05
0.2 0.0625 -0.05
0.2125 0.0625 -0.05
0.225 0.0625 -0.05
0.2375 0.0625 -0.05
0.25 0.0625 -0.05
0.2625 0.0625 -0.05
0.275 0.0625 -0.05
0.2875 0.0625 -0.05
0.3 0.0625 -0.05
0.3125 0.0625 -0.05
0.325 0.0625 -0.05
0.3375 0.0625 -0.05
0.35 0.0625 -0.05
0.3625 0.0625 -0.05
0.375 0.0625 -0.05
0.3875 0.0625 -0.05
0.4 0.0625 -0.05
0.4125 0.0625 -0.05
0.425 0.0625 -0.05
0.4375 0.0625 -0.05
0.45 0.0625 -0.05
0.4625 0.0625 -0.05
0.475 0.0625 -0.05
0.4875 0.0625 -0.05
0.5 0.0625 -0.05
0.5125 0.0625 -0.05
0.525 0.0625 -0.05
0.5375 0.0625 -0.05
0.55 0.0625 -0.05
0.5625 0.0625 -0.05
0.575 0.0625 -0.05
0.5875 0.0625 -0.05
0.6 0.0625 -0.05
0.0 0.075 -0.05
0.0125 0.075 -0.05
0.025 0.075 -0.05
0.0375 0.075 -0.05
0.05 0.075 -0.05
0.0625 0.075 -0.05
0.075 0.075 -0.05
0.0875 0.075 -0.05
0.1 0.075 -0.05
0.1125 0.075 -0.05
0.125 0.075 -0.05
0.1375 0.075 -0.05
0.15 0.075 -0.05
0.1625 0.075 -0.05
0.175 0.075 -0.05
0.1875 0.075 -0.05
0.2 0.075 -0.05
0.2125 0.075 -0.05
0.225 0.075 -0.05
0.2375 0.075 -0.05
0.25 0.075 -0.05
0.2625 0.075 -0.05
0.275 0.075 -0.05
0.2875 0.075 -0.05
0.3 0.075 -0.05
0.3125 0.075 -0.05
0.325 0.075 -0.05
0.3375 0.075 -0.05
0.35 0.075 -0.05
0.3625 0.075 -0.05
0.375 0.075 -0.05
0.3875 0.075 -0.05
0.4 0.075 -0.05
0.4125 0.075 -0.05
0.425 0.075 -0.05
0.4375 0.075 -0.05
0.45 0.075 -0.05
0.4625 0.075 -0.05
0.475 0.075 -0.05
0.4875 0.075 -0.05
0.5 0.075 -0.05
0.5125 0.075 -0.05
0.525 0.075 -0.05
0.5375 0.075 -0.05
0.55 0.075 -0.05
0.5625 0.075 -0.05
0.575 0.075 -0.05
0.5875 0.075 -0.05
0.6 0.075 -0.05
0.0 0.0875 -0.05
0.0125 0.0875 -0.05
0.025 0.0875 -0.05
0.0375 0.0875 -0.05
0.05 0.0875 -0.05
0.0625 0.0875 -0.05
0.075 0.0875 -0.05
0.0875 0.0875 -0.05
0.1 0.0875 -0.05
0.1125 0.0875 -0.05
0.125 0.0875 -0.05
0.1375 0.0875 -0.05
0.15 0.0875 -0.05
0.1625 0.0875 -0.05
0.175 0.0875 -0.05
0.1875 0.0875 -0.05
0.2 0.0875 -0.05
0.2125 0.0875 -0.05
0.225 0.0875 -0.05
0.2375 0.0875 -0.05
0.25 0.0875 -0.05
0.2625 0.0875 -0.05
0.275 0.0875 -0.05
0.2875 0.0875 -0.05
0.3 0.0875 -0.05
0.3125 0.0875 -0.05
0.325 0.0875 -0.05
0.3375 0.0875 -0.05
0.35 0.0875 -0.05
0.3625 0.0875 -0.05
0.375 0.0875 -0.05
0.3875 0.0875 -0.05
0.4 0.0875 -0.05
0.4125 0.0875 -0.05
0.425 0.0875 -0.05
0.4375 0.0875 -0.05
0.45 0.0875 -0.05
0.4625 0.0875 -0.05
0.475 0.0875 -0.05
0.4875 0.0875 -0.05
0.5 0.0875 -0.05
0.5125 0.0875 -0.05
0.525 0.0875 -0.05
0.5375 0.0875 -0.05
0.55 0.0875 -0.05
0.5625 0.0875 -0.05
0.575 0.0875 -0.05
0.5875 0.0875 -0.05
0.6 0.0875 -0.05
0.0 0.1 -0.05
0.0125 0.1 -0.05
0.025 0.1 -0.05
0.0375 0.1 -0.05
0.05 0.1 -0.05
0.0625 0.1 -0.05
0.075 0.1 -0.05
0.0875 0.1 -0.05
0.1 0.1 -0.05
0.1125 0.1 -0.05
0.125 0.1 -0.05
0.1375 0.1 -0.05
0.15 0.1 -0.05
0.1625 0.1 -0.05
0.175 0.1 -0.05
0.1875 0.1 -0.05
0.2 0.1 -0.05
0.2125 0.1 -0.05
0.225 0.1 -0.05
0.2375 0.1 -0.05
0.25 0.1 -0.05
0.2625 0.1 -0.05
0.275 0.1 -0.05
0.2875 0.1 -0.05
0.3 0.1 -0.05
0.3125 0.1 -0.05
0.325 0.1 -0.05
0.3375 0.1 -0.05
0.35 0.1 -0.05
0.3625 0.1 -0.05
0.375 0.1 -0.05
0.3875 0.1 -0.05
0.4 0.1 -0.05
0.4125 0.1 -0.05
0.425 0.1 -0.05
0.4375 0.1 -0.05
0.45 0.1 -0.05
0.4625 0.1 -0.05
0.475 0.1 -0.05
0.4875 0.1 -0.05
0.5 0.1 -0.05
0.5125 0.1 -0.05
0.525 0.1 -0.05
0.5375 0.1 -0.05
0.55 0.1 -0.05
0.5625 0.1 -0.05
0.575 0.1 -0.05
0.5875 0.1 -0.05
0.6 0.1 -0.05
0.0 0.1125 -0.05
0.0125 0.1125 -0.05
0.025 0.1125 -0.05
0.0375 0.1125 -0.05
0.05 0.1125 -0.05
0.0625 0.1125 -0.05
0.075 0.1125 -0.05
0.0875 0.1125 -0.05
0.1 0.1125 -0.05
0.1125 0.1125 -0.05
0.125 0.1125 -0.05
0.1375 0.1125 -0.05
0.15 0.1125 -0.05
0.1625 0.1125 -0.05
0.175 0.1125 -0.05
0.1875 0.1125 -0.05
0.2 0.1125 -0.05
0.2125 0.1125 -0.05
0.225 0.1125 -0.05
0.2375 0.1125 -0.05
0.25 0.1125 -0.05
0.2625 0.1125 -0.05
0.275 0.1125 -0.05
0.2875 0.1125 -0.05
0.3 0.1125 -0.05
0.3125 0.1125 -0.05
0.325 0.1125 -0.05
0.3375 0.1125 -0.05
0.35 0.1125 -0.05
0.3625 0.1125 -0.05
0.375 0.1125 -0.05
0.3875 0.1125 -0.05
0.4 0.1125 -0.05
0.4125 0.1125 -0.05
0.425 0.1125 -0.05
0.4375 0.1125 -0.05
0.45 0.1125 -0.05
0.4625 0.1125 -0.05
0.475 0.1125 -0.05
0.4875 0.1125 -0.05
0.5 0.1125 -0.05
0.5125 0.1125 -0.05
0.525 0.1125 -0.05
0.5375 0.1125 -0.05
0.55 0.1125 -0.05
0.5625 0.1125 -0.05
0.575 0.1125 -0.05
0.5875 0.1125 -0.05
0.6 0.1125 -0.05
0.0 0.125 -0.05
0.0125 0.125 -0.05
0.025 0.125 -0.05
0.0375 0.125 -0.05
0.05 0.125 -0.05
0.0625 0.125 -0.05
0.075 0.125 -0.05
0.0875 0.125 -0.05
0.1 0.125 -0.05
0.1125 0.125 -0.05
0.125 0.125 -0.05
0.1375 0.125 -0.05
0.15 0.125 -0.05
0.1625 0.125 -0.05
0.175 0.125 -0.05
0.1875 0.125 -0.05
0.2 0.125 -0.05
0.2125 0.125 -0.05
0.225 0.125 -0.05
0.2375 0.125 -0.05
0.25 0.125 -0.05
0.2625 0.125 -0.05
0.275 0.125 -0.05
0.2875 0.125 -0.05
0.3 0.125 -0.05
0.3125 0.125 -0.05
0.325 0.125 -0.05
0.3375 0.125 -0.05
0.35 0.125 -0.05
0.3625 0.125 -0.05
0.375 0.125 -0.05
0.3875 0.125 -0.05
0.4 0.125 -0.05
0.4125 0.125 -0.05
0.425 0.125 -0.05
0.4375 0.125 -0.05
0.45 0.125 -0.05
0.4625 0.125 -0.05
0.475 0.125 -0.05
0.4875 0.125 -0.05
0.5 0.125 -0.05
0.5125 0.125 -0.05
0.525 0.125 -0.05
0.5375 0.125 -0.05
0.55 0.125 -0.05
0.5625 0.125 -0.05
0.575 0.125 -0.05
0.5875 0.125 -0.05
0.6 0.125 -0.05
0.0 0.1375 -0.05
0.0125 0.1375 -0.05
0.025 0.1375 -0.05
0.0375 0.1375 -0.05
0.05 0.1375 -0.05
0.0625 0.1375 -0.05
0.075 0.1375 -0.05
0.0875 0.1375 -0.05
[...]
CELL_DATA 16128
SCALARS P float 1
LOOKUP_TABLE default
99999.98473377222
100000.02611784646
99999.95721777354
100000.0720168075
99999.8808351863
100000.19925654533
99999.66895998866
100000.55211854498
99999.08120198979
100001.53133151132
99997.44885938325
100004.25452903197
99992.89812267538
100011.87732544476
99980.06771080727
100033.6139666031
99942.76301471819
100098.66460207698
99825.81029364272
100315.86314258777
99399.50769947242
101197.10188217931
97477.81449312989
105807.04985778476
87203.81303058208
372989.80582259735
855549.950630486
1.062189834330107e6
1.0575210956763416e6
1.0730857969018552e6
1.083795943342785e6
1.095104327103298e6
1.1056909258204754e6
1.1158812055506813e6
1.1255700625856442e6
1.1348022936270148e6
1.143517631189228e6
1.1517774750063787e6
1.1594277074548304e6
1.1666640819318087e6
1.173056653599934e6
1.1792459149294563e6
1.1839920816664963e6
1.1893275993804673e6
1.19155712912859e6
1.197012413819343e6
1.1944623587551436e6
1.2034659643302138e6
99999.98485709917
100000.02582147633
99999.95764089786
100000.07118120998
99999.88220112685
100000.19674033886
99999.67332566154
100000.54423980975
99999.09518433647
100001.50627664657
99997.49341572053
100004.17561785126
99993.03623003767
100011.63971742339
99980.46571504092
100032.97572204084
99943.7136317574
100097.45200208713
99826.76638443272
100317.17868369473
99389.7803284022
101233.45240183437
97370.90423599178
106129.75988673659
86497.03008894854
369697.0622891504
854479.4731022369
1.0659656422763446e6
1.062414915046619e6
1.0784474411274048e6
1.089445527904316e6
1.1008976924256363e6
1.111586414762446e6
1.1218602940607881e6
1.1316336506885362e6
1.1409561678575727e6
1.149769073797271e6
1.1581325264673429e6
1.1658893551208852e6
1.173232324005046e6
1.179725563943056e6
1.1860071949190898e6
1.1908260870357745e6
1.196220901732737e6
1.1984660366869066e6
1.203945559402737e6
1.201303261201131e6
1.210405718825062e6
99999.98579885537
100000.02416459817
99999.96035911201
100000.06651818736
99999.88996875437
100000.18358048605
99999.69535417187
100000.50717877083
99999.15718349289
100001.4025662385
99997.66618327158
100003.88868756926
99993.51026716978
100010.8618781397
99981.72928842908
100030.9568451778
99946.85207952837
100092.83264636187
99832.81391419935
100311.7652702726
99385.76748456249
101279.27537767167
97189.01813420875
106812.23537427148
84615.55245134044
359158.0796193693
843340.5071765373
1.0616511797155258e6
1.0588740885722747e6
1.0742554968421797e6
1.0850914433103497e6
1.096321377266693e6
1.1068409102254503e6
1.1169448028025115e6
1.1265509604423887e6
1.1357019970411074e6
1.1443405587713944e6
1.1525267897180999e6
1.160108099946451e6
1.167277453689205e6
1.1736082785581786e6
1.179734895271607e6
1.1844239345306393e6
1.1897012659944475e6
1.1918656254409458e6
1.1972963086925603e6
1.1945775922852217e6
1.2038382877559501e6
99999.98711305106
100000.02184555707
99999.96415545234
100000.06000567564
99999.90081451117
100000.16520448137
99999.72613895526
100000.45532440029
99999.24412131752
100001.25669258814
99997.91025993867
100003.48094977524
99994.18910556046
100009.73691072436
99983.5800244982
100027.95166239183
99951.62524398055
100085.58905110463
99842.82505562512
100301.2723228013
99385.39815477366
101334.95190137759
96946.96155541932
107750.2866384504
82077.979365929
343895.05056378676
828913.4379202185
1.0594661483371267e6
1.0588091821391713e6
1.073837895593298e6
1.0848942275375007e6
1.096133603900264e6
1.1066780018963213e6
1.1167782096492539e6
1.126378576628378e6
1.1355230392980655e6
1.1441608557951225e6
1.1523535158890428e6
1.1599522348356456e6
1.1671478815958926e6
1.1735184641241145e6
1.1796902234943905e6
1.184436349878364e6
1.1897692313481418e6
1.1919821354541294e6
1.1974828835594447e6
1.1947013325794272e6
1.2042150710392739e6
99999.98870017526
100000.01904533737
99999.9687378409
100000.05214834677
99999.91390677096
100000.1430141573
99999.76336419061
100000.39251988282
99999.34968783242
100001.0789877195
99998.20886802177
100002.9794621226
99995.02956692848
100008.33273653158
99985.91374434382
100024.11275690085
99957.8328477064
100075.91152814263
99856.89326811374
100284.3714698951
99394.33274600186
101380.8871515532
96704.48920329574
108758.92832931856
79305.67040765542
323514.98684115184
808073.9068787451
1.054528039787531e6
1.0568269259614474e6
1.0708441840014886e6
1.0818815230123266e6
1.092869840877084e6
1.10323104880596e6
1.1131322319630173e6
1.1225386580681393e6
1.1314867355592162e6
1.1399290962587453e6
1.1479262620805542e6
1.1553339786781645e6
1.1623408063456116e6
1.1685339071730971e6
1.174531427375342e6
1.1791239370470752e6
1.1843094068855247e6
1.1863947373960535e6
1.1918211373137685e6
1.188861808846906e6
1.1986378928273153e6
99999.99043898101
100000.0159858125
99999.97374534284
100000.04357570778
99999.92819388071
100000.11880704814
99999.80400329776
100000.3238912966
99999.46525292091
100000.88397798518
99998.53766342436
100002.42485710558
99995.96433804242
100006.75953916443
99988.55370268173
100019.71272413498
99965.08541225374
100064.25816085185
99874.80644591332
100259.82959187745
99419.1888479632
101392.50263937544
96538.82060982243
109572.37048017357
76891.88478548912
298905.9691162599
781481.7548277638
1.0482209200478436e6
1.0553539048060535e6
1.0681929142415416e6
1.0793921062385037e6
1.0902119228328008e6
1.1004700606787917e6
1.1102375918446071e6
1.1195108275700812e6
1.1283223377026045e6
1.1366321049448191e6
1.144502302276626e6
1.151795628580752e6
1.1586997110829698e6
1.1648121812174094e6
1.170742918034275e6
1.1752975387505104e6
1.1804584509123801e6
1.1825294541798527e6
1.188000356594214e6
1.1849132317899873e6
1.195066276311419e6
99999.99220619525
100000.0128950965
99999.97880420985
100000.03494652947
99999.9425612039
100000.09451470275
99999.84474905928
100000.25514130018
99999.58101677663
100000.68852245666
99998.86770709773
100001.86666884857
99996.90908456336
100005.15951016718
99991.26397493882
100015.13168845973
99972.80246397943
100051.41776104085
99895.7934017643
100227.30910042963
99465.10367945502
101347.44949533303
96521.84426008146
109936.77827217864
75441.96879855261
270679.52684399026
748309.7166456352
1.0391094147666103e6
1.053392871995519e6
1.0645538478175271e6
1.0758552863111019e6
1.086379574159068e6
1.0964256824911053e6
1.105950318438735e6
1.1149802507828653e6
1.1235408069593245e6
1.131596912426803e6
1.1392099663005185e6
1.1462477368338697e6
1.1528945171567772e6
1.1587572104554689e6
1.164436007904892e6
1.1687532470566349e6
1.1736818767234294e6
1.1755277516768728e6
1.1808673716144033e6
1.1774730758529247e6
1.1880219478423144e6
99999.9938927796
100000.0099762414
99999.98357932131
100000.02685503465
99999.95599183599
100000.07191793494
99999.88250790443
100000.19168625801
99999.6875027473
100000.50925022975
99999.1698224696
100001.35608291154
99997.7742647924
100003.6884586255
99993.77616623811
100010.82329018266
99980.24117037111
100038.5277156667
99918.33439153747
100188.03295533505
99533.94902225723
101229.92825559407
96713.09961128533
109639.79499349288
75528.0363806406
239805.80314711275
708338.9998447517
1.0266528687023148e6
1.051397947078396e6
1.0605141031199594e6
1.071979523933633e6
1.0822041601608123e6
1.0920354225646008e6
1.1013092874449568e6
1.1100843281094974e6
1.1183805613431751e6
1.1261697476499826e6
1.1335152687114913e6
1.1402937130420008e6
1.1466908100173406e6
1.1523289008507738e6
1.157804861235803e6
1.1619630003513675e6
1.1667697140529482e6
1.1685215764129916e6
1.1738832605228757e6
1.1702746014026734e6
1.1813799270112016e6
99999.99541855323
100000.00737708365
99999.9878253087
100000.01973466057
99999.96773861098
100000.05233156907
99999.91497062448
100000.13762039054
99999.7774262083
100000.3591995387
99999.42057846574
100000.93534995445
99998.48350936934
100002.48434435717
99995.84155892163
100007.23185543568
99986.61820242253
100026.92275176474
99940.26657478327
100145.03104324092
99622.75538317293
101036.96154127948
97141.07867052896
108552.06808590863
77583.46370309225
207427.50370052923
661273.5342017871
1.00965822802455e6
1.0491419956457731e6
1.0558511233360674e6
1.0674473148599367e6
1.0773091933330682e6
1.0868551006025623e6
1.0958049041543563e6
1.1042442830677617e6
1.1121870386837812e6
1.1196083035335096e6
1.126569545257343e6
1.1329502852020683e6
1.1389306145436435e6
1.1441379986703428e6
1.1491580199511931e6
1.152843913747766e6
1.1571654175611166e6
1.158399141298441e6
1.1633944598435976e6
1.1591416376658757e6
1.170787163431403e6
99999.99674106111
100000.00517003112
99999.99142211296
100000.0137881031
99999.97745588838
100000.036351668
99999.94109387696
100000.09479764917
99999.84744117832
100000.24450866305
99999.60854913754
100000.62604871529
99998.9955874882
100001.62677658367
99997.30527626416
100004.65991360668
99991.340896493
100017.75477788335
99959.36030997381
100102.47179144659
99723.92476997398
100781.3987699883
97786.51171912323
106699.84337424292
81760.33018708874
174955.14349276834
607155.4306900017
986885.65749295
1.0465283053108096e6
1.0507235005820089e6
1.0623939619572035e6
1.0718721480510419e6
1.0810892903025264e6
1.0896718938026824e6
1.0977256487010145e6
1.1052609870109437e6
1.1122575196028673e6
1.1187785704391252e6
1.1247129345252707e6
1.1302452323220258e6
1.135023757849104e6
1.1396411717299698e6
1.1429847795010614e6
1.1470367596271527e6
1.1480671217381328e6
1.153054544174309e6
1.1484911274986314e6
1.1609721924178463e6
99999.99785543597
100000.0033500464
99999.99438044733
100000.00897301885
99999.98523563631
100000.02377263989
99999.96128942685
100000.06241679017
99999.89903891884
100000.16250502922
99999.73832042089
100000.42076227539
99999.32143889312
100001.10240544367
99998.17540633994
100003.13198181069
99994.26972565381
100011.50529343155
99974.18301298803
100064.30959753224
99826.94253490547
100491.75739598382
98582.88294140414
104294.47390165756
87790.50379802924
144057.95566007987
546407.0362540707
956837.222691822
1.0431502025420911e6
1.0451825281110718e6
1.0567634206423364e6
1.065833990460708e6
1.074655405166875e6
1.0828042016593814e6
1.090392304766645e6
1.097426137083888e6
1.1038832462502099e6
1.1098206413082054e6
1.115122206482803e6
1.1199583815608153e6
1.1239662826960222e6
1.1277149235869262e6
1.1300672025216513e6
1.1330176175166254e6
1.1327489199985596e6
1.1366233262326482e6
1.130416474771132e6
1.143498072243308e6
99999.99878430257
100000.00185459988
99999.99680967149
100000.00506018336
99999.99151142994
100000.01375003978
99999.9771607717
100000.03743802471
99999.93792370119
100000.10256506196
99999.82949635979
100000.28371888709
99999.52541970024
100000.7978205634
99998.64582297172
100002.33373771065
99995.8667785922
100007.6473012592
99984.8313598334
100032.81646959069
99921.17004795911
100206.01225560512
99420.21059666135
101712.27317782481
94881.76173938776
116681.74979799303
480033.3274083187
917902.5319257759
1.0383063611330196e6
1.0393741210421621e6
1.050580249887444e6
1.0592443165055413e6
1.067608085591685e6
1.0752654562333168e6
1.0823191477294993e6
1.0887749818027131e6
1.094609308151919e6
1.0998777468238985e6
1.1044700486178524e6
1.108561169302236e6
1.1118137212846712e6
1.1148164004199693e6
1.1164952018132303e6
1.118881999239629e6
1.1182203699292766e6
1.121955943318616e6
1.1154088856227337e6
1.129607231084229e6
99999.99956039006
100000.0006013759
99999.99885419518
100000.0017550705
99999.99684104872
100000.00520013568
99999.99078203175
100000.01588652455
99999.97167811895
100000.05026870735
99999.90938680164
100000.1634839504
99999.70368682989
100000.5352804669
99999.03964006803
100001.69421407844
99997.09531727577
100004.70471700837
99993.1272168479
100007.4074643046
99999.94429084288
99960.2000688177
100168.48211516078
99406.43864916547
101750.70144646554
94965.10762736271
409774.74081621337
868462.1032927139
1.0308005132177194e6
1.0334395921573729e6
1.0438383381997014e6
1.0521119663936829e6
1.0599505249607437e6
1.067050184725764e6
1.0734850300923523e6
1.0792579157437691e6
1.084333591140916e6
1.0887511431218267e6
1.0923780851841061e6
1.0953523161670351e6
1.0972826644885493e6
1.0986839629014009e6
1.098347350792761e6
1.0982575936655495e6
1.094308093744454e6
1.0946676126997955e6
1.083105746342911e6
1.0972155325119626e6
100000.00020784115
99999.99953095884
100000.0006195449
99999.99884304014
100000.00163676092
99999.99731249505
100000.00373267809
99999.9946731386
100000.00633600602
99999.9938315183
100000.00097384193
100000.0153447387
99999.94286665814
100000.14815111367
99999.67382185829
100000.6221456447
99999.02466062855
100000.85782386115
100001.83189387925
99985.15110572174
100061.85540937798
99779.01949510133
100712.91684141636
97778.24320299712
106886.80691248084
80860.99850991524
338175.6955616697
807187.2952667476
1.0188544826295322e6
1.0275091205935028e6
1.0365580350547392e6
1.0444712443398333e6
1.051724467282714e6
1.0582063501926207e6
1.063948340991146e6
1.068952025662641e6
1.0731712058161255e6
1.0766329691667294e6
1.0791978263347144e6
1.0809941195253562e6
1.0816501084539033e6
1.081693741969827e6
1.0800408211773995e6
1.0786762894351408e6
1.0739311584092171e6
1.073396879443521e6
1.061838928697708e6
1.0751855571825928e6
100000.00072975876
99999.99863685918
100000.00211854145
99999.99629805668
100000.00595484885
99999.98996440353
100000.01628412622
99999.97319419557
100000.04323539141
99999.9302954259
100000.11074683942
99999.82517582497
100000.27339184005
99999.57168011366
100000.68398556343
99998.83979310823
100002.20584890306
99995.07106494598
100012.71289315524
99963.6720876726
100107.61488835106
99673.82356778425
100983.17680774257
97068.45538440546
109077.0230904862
75426.2078895178
268431.32762744126
733484.7541394418
1.0001149105036687e6
1.0216237373128597e6
1.0287920532727744e6
1.0363595821955941e6
1.0429725247378516e6
1.0487738051755843e6
1.0537427840394324e6
1.0578739707873128e6
1.0610978859839472e6
1.063408765852308e6
1.0646182030856824e6
1.0647753801758294e6
1.0633769206192738e6
1.060743372309642e6
1.0553940708795043e6
1.0488846049221894e6
1.0362089649057287e6
1.0256005632660141e6
996203.8062206311
1.0027648416873254e6
100000.00110779241
99999.99796791114
100000.00326471416
99999.99429897788
100000.00945452262
99999.98381721803
100000.02717506891
99999.95384123086
100000.07787559346
99999.86805446979
100000.2231764838
99999.62139924683
100000.64385008604
99998.89743761202
100001.9101619822
99996.61918395813
100006.19274835555
99988.0352003431
100024.78102416884
99944.15610126415
100136.03001871542
99644.42157939282
100976.04583360275
97267.14053248939
108168.86222163177
78076.19607079896
204033.14471055724
647866.7131973698
971758.7558142596
1.0155963990201367e6
1.0206604732798772e6
1.027833487947338e6
1.033760932792584e6
1.0388236791187146e6
1.0429526508171347e6
1.0461312286753241e6
1.048266155267546e6
1.0493195401775579e6
1.0490680909847214e6
1.0475061960805858e6
1.0441047861577446e6
1.0391073615376344e6
1.0311810057539694e6
1.0216874410351566e6
1.0069153301542826e6
992055.3413606259
963901.1471529324
930770.7436785684
100000.00131469584
99999.99759927332
100000.00392116689
99999.99313411342
100000.01157029813
99999.97999656522
100000.03419299897
99999.94094689368
100000.10180763106
99999.82350702866
100000.30655699172
99999.46501324266
100000.93753628613
99998.34703795322
100002.93584282024
99994.73111388538
100009.59186523255
99982.17011578263
100034.11131783713
99932.02782506609
100142.44811060646
99682.56347353217
100754.7044512807
98110.41451245229
105152.60988613732
86501.17707813252
148773.70418783868
552212.8827013607
930538.7323834221
1.0086777104079546e6
1.012332225433381e6
1.0189463683320436e6
1.0241567336178636e6
1.0284279823411492e6
1.0316579109003785e6
1.0338094879887219e6
1.0347569199395364e6
1.0344148972557166e6
1.0324903428466434e6
1.0288588561316826e6
1.0228069351770383e6
1.0141850444945904e6
1.0009999765638923e6
983010.0654419422
953473.1294548012
910532.3330397357
824847.5120421499
673191.0939087382
100000.00133439901
99999.99758394064
100000.0039854782
99999.99303072177
100000.01183451804
99999.97946839899
100000.0353703195
99999.93848798951
100000.10703727305
99999.81262758921
100000.32910332562
99999.41893800342
100001.03055692019
99998.16268242772
100003.29215891189
99994.06969426699
100010.73747343788
99980.45644961695
100035.74344436979
99934.28656286153
100121.31743092528
99774.5783166557
100420.91226546992
99204.7713121983
101544.16331601217
97005.20392768086
106915.31559360793
450229.06074476417
872953.3391847378
999060.1258361137
1.0039600538742517e6
1.0097348006041397e6
1.0142234130443062e6
1.0176675368998165e6
1.0199617336717758e6
1.0210420476517115e6
1.0207510294813215e6
1.0189526573045122e6
1.015293624383773e6
1.0095399989445577e6
1.0008403550076593e6
988779.7086780806
971069.9918496356
946788.2562236363
908958.8198909954
854226.1570395954
758845.0424007431
602895.4541731498
100000.00117990964
99999.99790839442
100000.00346952467
99999.99399202447
100000.01019423
99999.9824119205
100000.03021939428
99999.94764899477
100000.0908340424
99999.84147724701
100000.27767732144
99999.51111211871
100000.86441754803
99998.46497125897
100002.73465635475
99995.11948364163
100008.69993770115
99984.58355630821
100026.91304918306
99954.42896800423
100072.22347796906
99901.41947991669
100075.52068267473
100173.29608487214
98717.1050583024
105340.37913681593
82242.47838796431
347898.18233431835
796197.8471896688
983527.9118242275
995581.4425434154
1.0002258013168088e6
1.004019482982647e6
1.0066262553382519e6
1.0079724110950204e6
1.0079678778338529e6
1.0064248343640594e6
1.0031668865478195e6
997785.1628433072
989964.5043227915
978757.3573841515
963601.119024366
942100.4462274818
913202.3279957377
870316.6995098528
811239.329948617
716889.7750967335
583918.8390371755
100000.00089940436
99999.99847649033
100000.0025308223
99999.99573053814
100000.00714861325
99999.98793487412
100000.02032112231
99999.96560633864
100000.05824273001
99999.90101734937
100000.16849627366
99999.71240096066
100000.49152850466
99999.15945987352
100001.43418959544
99997.56898360756
100004.05676119875
99993.44910405704
100009.83794295634
99987.6752776447
100006.54999635098
100033.70950393949
99801.93522695579
100761.67538020833
97411.99693297624
108535.2691783899
75373.64787602
252651.3786134076
699844.3315647481
957753.5292301087
987065.193788473
990512.2524376615
993629.1449427635
995406.4100018711
995812.9768787097
994739.0383915731
991973.66476331
987311.5823004853
980307.0854088687
970600.3138995647
957201.8981017808
939524.5388563271
915206.0053828532
883440.0320658989
838185.2517170993
779181.5066525401
690524.9225904214
579682.1186880365
100000.00056640148
99999.99913260821
100000.00143428218
99999.99774271621
100000.00361413561
99999.99432475165
100000.00886371265
99999.98637502374
100000.02053805861
99999.96990594639
100000.04211929526
99999.94544345584
100000.0598883606
99999.96238936819
99999.93540456495
100000.37332745381
99998.80725220645
100003.25077364837
99991.6746810079
100020.80897528195
99947.97887840481
100131.22594833854
99661.12720714118
100892.71692215577
97598.67445710512
106784.7060557182
82032.54786415293
171822.31331422477
586564.3668339666
916683.2267731394
977803.6354566035
980793.4486523862
983170.0233440335
984125.8351606341
983613.3773507529
981507.3464818039
977582.790635696
971615.5968420157
963144.2738341073
951797.7479382493
936593.7358949833
917000.4922773436
890793.5172618511
857530.3533028564
811873.7749407364
755026.2994623882
674138.0566314079
580353.4781797602
100000.0002578213
99999.99971444065
100000.00045999506
99999.99949401034
100000.00057261244
99999.9997345974
99999.99931302997
100000.00339916172
99999.99017043061
100000.02438014114
99999.94410191201
100000.12256521975
99999.7387984798
100000.54612133835
99998.8728545199
100002.3055808699
99995.31157408842
100009.49802528821
99980.79295734696
100038.80981888981
99921.4962508669
100158.86536092818
99677.47553244911
100654.71835002533
98669.62349748524
102741.90258309458
94624.14713224389
112695.58173926467
462455.19903203135
854465.1367373663
965653.920379194
971196.7681166634
972728.3497556875
972881.7790985476
971487.4308624896