# vtk DataFile Version 2.0
JuliaCFD
ASCII
DATASET UNSTRUCTURED_GRID

POINTS 32898 float
0.0 0.0 -0.05
0.0125 0.0 -0.05
0.025 0.0 -0.05
0.0375 0.0 -0.05
0.05 0.0 -0.05
0.0625 0.0 -0.05
0.075 0.0 -0.05
0.0875 0.0 -0.05
0.1 0.0 -0.05
0.1125 0.0 -0.05
0.125 0.0 -0.05
0.1375 0.0 -0.05
0.15 0.0 -0.05
0.1625 0.0 -0.05
0.175 0.0 -0.05
0.1875 0.0 -0.05
0.2 0.0 -0.05
0.2125 0.0 -0.05
0.225 0.0 -0.05
0.2375 0.0 -0.05
0.25 0.0 -0.05
0.2625 0.0 -0.05
0.275 0.0 -0.05
0.2875 0.0 -0.05
0.3 0.0 -0.05
0.3125 0.0 -0.05
0.325 0.0 -0.05
0.3375 0.0 -0.05
0.35 0.0 -0.05
0.3625 0.0 -0.05
0.375 0.0 -0.05
0.3875 0.0 -0.05
0.4 0.0 -0.05
0.4125 0.0 -0.05
0.425 0.0 -0.05
0.4375 0.0 -0.05
0.45 0.0 -0.05
0.4625 0.0 -0.05
0.475 0.0 -0.05
0.4875 0.0 -0.05
0.5 0.0 -0.05
0.5125 0.0 -0.05
0.525 0.0 -0.05
0.5375 0.0 -0.05
0.55 0.0 -0.05
0.5625 0.0 -0.05
0.575 0.0 -0.05
0.5875 0.0 -0.05
0.6 0.0 -0.05
0.0 0.0125 -0.05
0.0125 0.0125 -0.05
0.025 0.0125 -0.05
0.0375 0.0125 -0.05
0.05 0.0125 -0.05
0.0625 0.0125 -0.05
0.075 0.0125 -0.05
0.0875 0.0125 -0.05
0.1 0.0125 -0.05
0.1125 0.0125 -0.05
0.125 0.0125 -0.05
0.1375 0.0125 -0.05
0.15 0.0125 -0.05
0.1625 0.0125 -0.05
0.175 0.0125 -0.05
0.1875 0.0125 -0.05
0.2 0.0125 -0.05
0.2125 0.0125 -0.05
0.225 0.0125 -0.05
0.2375 0.0125 -0.05
0.25 0.0125 -0.05
0.2625 0.0125 -0.05
0.275 0.0125 -0.05
0.2875 0.0125 -0.05
0.3 0.0125 -0.05
0.3125 0.0125 -0.05
0.325 0.0125 -0.05
0.3375 0.0125 -0.05
0.35 0.0125 -0.05
0.3625 0.0125 -0.05
0.375 0.0125 -0.05
0.3875 0.0125 -0.05
0.4 0.0125 -0.05
0.4125 0.0125 -0.05
0.425 0.0125 -0.05
0.4375 0.0125 -0.05
0.45 0.0125 -0.05
0.4625 0.0125 -0.05
0.475 0.0125 -0.05
0.4875 0.0125 -0.05
0.5 0.0125 -0.05
0.5125 0.0125 -0.05
0.525 0.0125 -0.05
0.5375 0.0125 -0.05
0.55 0.0125 -0.05
0.5625 0.0125 -0.05
0.575 0.0125 -0.05
0.5875 0.0125 -0.05
0.6 0.0125 -0.05
0.0 0.025 -0.05
0.0125 0.025 -0.05
0.025 0.025 -0.05
0.0375 0.025 -0.05
0.05 0.025 -0.05
0.0625 0.025 -0.05
0.075 0.025 -0.05
0.0875 0.025 -0.05
0.1 0.025 -0.05
0.1125 0.025 -0.05
0.125 0.025 -0.05
0.1375 0.025 -0.05
0.15 0.025 -0.05
0.1625 0.025 -0.05
0.175 0.025 -0.05
0.1875 0.025 -0.05
0.2 0.025 -0.05
0.2125 0.025 -0.05
0.225 0.025 -0.05
0.2375 0.025 -0.05
0.25 0.025 -0.05
0.2625 0.025 -0.05
0.275 0.025 -0.05
0.2875 0.025 -0.05
0.3 0.025 -0.05
0.3125 0.025 -0.05
0.325 0.025 -0.05
0.3375 0.025 -0.05
0.35 0.025 -0.05
0.3625 0.025 -0.05
0.375 0.025 -0.05
0.3875 0.025 -0.05
0.4 0.025 -0.05
0.4125 0.025 -0.05
0.425 0.025 -0.05
0.4375 0.025 -0.05
0.45 0.025 -0.05
0.4625 0.025 -0.05
0.475 0.025 -0.05
0.4875 0.025 -0.05
0.5 0.025 -0.05
0.5125 0.025 -0.05
0.525 0.025 -0.05
0.5375 0.025 -0.05
0.55 0.025 -0.05
0.5625 0.025 -0.05
0.575 0.025 -0.05
0.5875 0.025 -0.05
0.6 0.025 -0.05
0.0 0.0375 -0.05
0.0125 0.0375 -0.05
0.025 0.0375 -0.05
0.0375 0.0375 -0.05
0.05 0.0375 -0.05
0.0625 0.0375 -0.05
0.075 0.0375 -0.05
0.0875 0.0375 -0.05
0.1 0.0375 -0.05
0.1125 0.0375 -0.05
0.125 0.0375 -0.05
0.1375 0.0375 -0.05
0.15 0.0375 -0.05
0.1625 0.0375 -0.05
0.175 0.0375 -0.05
0.1875 0.0375 -0.05
0.2 0.0375 -0.05
0.2125 0.0375 -0.05
0.225 0.0375 -0.05
0.2375 0.0375 -0.05
0.25 0.0375 -0.05
0.2625 0.0375 -0.05
0.275 0.0375 -0.05
0.2875 0.0375 -0.05
0.3 0.0375 -0.05
0.3125 0.0375 -0.05
0.325 0.0375 -0.05
0.3375 0.0375 -0.05
0.35 0.0375 -0.05
0.3625 0.0375 -0.05
0.375 0.0375 -0.05
0.3875 0.0375 -0.05
0.4 0.0375 -0.05
0.4125 0.0375 -0.05
0.425 0.0375 -0.05
0.4375 0.0375 -0.05
0.45 0.0375 -0.05
0.4625 0.0375 -0.05
0.475 0.0375 -0.05
0.4875 0.0375 -0.05
0.5 0.0375 -0.05
0.5125 0.0375 -0.05
0.525 0.0375 -0.05
0.5375 0.0375 -0.05
0.55 0.0375 -0.05
0.5625 0.0375 -0.05
0.575 0.0375 -0.05
0.5875 0.0375 -0.05
0.6 0.0375 -0.05
0.0 0.05 -0.05
0.0125 0.05 -0.05
0.025 0.05 -0.05
0.0375 0.05 -0.05
0.05 0.05 -0.05
0.0625 0.05 -0.05
0.075 0.05 -0.05
0.0875 0.05 -0.05
0.1 0.05 -0.05
0.1125 0.05 -0.05
0.125 0.05 -0.05
0.1375 0.05 -0.05
0.15 0.05 -0.05
0.1625 0.05 -0.05
0.175 0.05 -0.05
0.1875 0.05 -0.05
0.2 0.05 -0.05
0.2125 0.05 -0.05
0.225 0.05 -0.05
0.2375 0.05 -0.05
0.25 0.05 -0.05
0.2625 0.05 -0.05
0.275 0.05 -0.05
0.2875 0.05 -0.05
0.3 0.05 -0.05
0.3125 0.05 -0.05
0.325 0.05 -0.05
0.3375 0.05 -0.05
0.35 0.05 -0.05
0.3625 0.05 -0.05
0.375 0.05 -0.05
0.3875 0.05 -0.05
0.4 0.05 -0.05
0.4125 0.05 -0.05
0.425 0.05 -0.05
0.4375 0.05 -0.05
0.45 0.05 -0.05
0.4625 0.05 -0.05
0.475 0.05 -0.05
0.4875 0.05 -0.05
0.5 0.05 -0.05
0.5125 0.05 -0.05
0.525 0.05 -0.05
0.5375 0.05 -0.05
0.55 0.05 -0.05
0.5625 0.05 -0.05
0.575 0.05 -0.05
0.5875 0.05 -0.05
0.6 0.05 -0.05
0.0 0.0625 -0.05
0.0125 0.0625 -0.05
0.025 0.0625 -0.05
0.0375 0.0625 -0.05
0.05 0.0625 -0.05
0.0625 0.0625 -0.05
0.075 0.0625 -0.05
0.0875 0.0625 -0.05
0.1 0.0625 -0.05
0.1125 0.0625 -0.05
0.125 0.0625 -0.05
0.1375 0.0625 -0.05
0.15 0.0625 -0.05
0.1625 0.0625 -0.05
0.175 0.0625 -0.05
0.1875 0.0625 -0.05
0.2 0.0625 -0.05
0.2125 0.0625 -0.05
0.225 0.0625 -0.05
0.2375 0.0625 -0.05
0.25 0.0625 -0.05
0.2625 0.0625 -0.05
0.275 0.0625 -0.05
0.2875 0.0625 -0.05
0.3 0.0625 -0.05
0.3125 0.0625 -0.05
0.325 0.0625 -0.05
0.3375 0.0625 -0.05
0.35 0.0625 -0.05
0.3625 0.0625 -0.05
0.375 0.0625 -0.05
0.3875 0.0625 -0.05
0.4 0.0625 -0.05
0.4125 0.0625 -0.05
0.425 0.0625 -0.05
0.4375 0.0625 -0.05
0.45 0.0625 -0.05
0.4625 0.0625 -0.05
0.475 0.0625 -0.05
0.4875 0.0625 -0.05
0.5 0.0625 -0.05
0.5125 0.0625 -0.05
0.525 0.0625 -0.05
0.5375 0.0625 -0.05
0.55 0.0625 -0.05
0.5625 0.0625 -0.05
0.575 0.0625 -0.05
0.5875 0.0625 -0.05
0.6 0.0625 -0.05
0.0 0.075 -0.05
0.0125 0.075 -0.05
0.025 0.075 -0.05
0.0375 0.075 -0.05
0.05 0.075 -0.05
0.0625 0.075 -0.05
0.075 0.075 -0.05
0.0875 0.075 -0.05
0.1 0.075 -0.05
0.1125 0.075 -0.05
0.125 0.075 -0.05
0.1375 0.075 -0.05
0.15 0.075 -0.05
0.1625 0.075 -0.05
0.175 0.075 -0.05
0.1875 0.075 -0.05
0.2 0.075 -0.05
0.2125 0.075 -0.05
0.225 0.075 -0.05
0.2375 0.075 -0.05
0.25 0.075 -0.05
0.2625 0.075 -0.05
0.275 0.075 -0.05
0.2875 0.075 -0.05
0.3 0.075 -0.05
0.3125 0.075 -0.05
0.325 0.075 -0.05
0.3375 0.075 -0.05
0.35 0.075 -0.05
0.3625 0.075 -0.05
0.375 0.075 -0.05
0.3875 0.075 -0.05
0.4 0.075 -0.05
0.4125 0.075 -0.05
0.425 0.075 -0.05
0.4375 0.075 -0.05
0.45 0.075 -0.05
0.4625 0.075 -0.05
0.475 0.075 -0.05
0.4875 0.075 -0.05
0.5 0.075 -0.05
0.5125 0.075 -0.05
0.525 0.075 -0.05
0.5375 0.075 -0.05
0.55 0.075 -0.05
0.5625 0.075 -0.05
0.575 0.075 -0.05
0.5875 0.075 -0.05
0.6 0.075 -0.05
0.0 0.0875 -0.05
0.0125 0.0875 -0.05
0.025 0.0875 -0.05
0.0375 0.0875 -0.05
0.05 0.0875 -0.05
0.0625 0.0875 -0.05
0.075 0.0875 -0.05
0.0875 0.0875 -0.05
0.1 0.0875 -0.05
0.1125 0.0875 -0.05
0.125 0.0875 -0.05
0.1375 0.0875 -0.05
0.15 0.0875 -0.05
0.1625 0.0875 -0.05
0.175 0.0875 -0.05
0.1875 0.0875 -0.05
0.2 0.0875 -0.05
0.2125 0.0875 -0.05
0.225 0.0875 -0.05
0.2375 0.0875 -0.05
0.25 0.0875 -0.05
0.2625 0.0875 -0.05
0.275 0.0875 -0.05
0.2875 0.0875 -0.05
0.3 0.0875 -0.05
0.3125 0.0875 -0.05
0.325 0.0875 -0.05
0.3375 0.0875 -0.05
0.35 0.0875 -0.05
0.3625 0.0875 -0.05
0.375 0.0875 -0.05
0.3875 0.0875 -0.05
0.4 0.0875 -0.05
0.4125 0.0875 -0.05
0.425 0.0875 -0.05
0.4375 0.0875 -0.05
0.45 0.0875 -0.05
0.4625 0.0875 -0.05
0.475 0.0875 -0.05
0.4875 0.0875 -0.05
0.5 0.0875 -0.05
0.5125 0.0875 -0.05
0.525 0.0875 -0.05
0.5375 0.0875 -0.05
0.55 0.0875 -0.05
0.5625 0.0875 -0.05
0.575 0.0875 -0.05
0.5875 0.0875 -0.05
0.6 0.0875 -0.05
0.0 0.1 -0.05
0.0125 0.1 -0.05
0.025 0.1 -0.05
0.0375 0.1 -0.05
0.05 0.1 -0.05
0.0625 0.1 -0.05
0.075 0.1 -0.05
0.0875 0.1 -0.05
0.1 0.1 -0.05
0.1125 0.1 -0.05
0.125 0.1 -0.05
0.1375 0.1 -0.05
0.15 0.1 -0.05
0.1625 0.1 -0.05
0.175 0.1 -0.05
0.1875 0.1 -0.05
0.2 0.1 -0.05
0.2125 0.1 -0.05
0.225 0.1 -0.05
0.2375 0.1 -0.05
0.25 0.1 -0.05
0.2625 0.1 -0.05
0.275 0.1 -0.05
0.2875 0.1 -0.05
0.3 0.1 -0.05
0.3125 0.1 -0.05
0.325 0.1 -0.05
0.3375 0.1 -0.05
0.35 0.1 -0.05
0.3625 0.1 -0.05
0.375 0.1 -0.05
0.3875 0.1 -0.05
0.4 0.1 -0.05
0.4125 0.1 -0.05
0.425 0.1 -0.05
0.4375 0.1 -0.05
0.45 0.1 -0.05
0.4625 0.1 -0.05
0.475 0.1 -0.05
0.4875 0.1 -0.05
0.5 0.1 -0.05
0.5125 0.1 -0.05
0.525 0.1 -0.05
0.5375 0.1 -0.05
0.55 0.1 -0.05
0.5625 0.1 -0.05
0.575 0.1 -0.05
0.5875 0.1 -0.05
0.6 0.1 -0.05
0.0 0.1125 -0.05
0.0125 0.1125 -0.05
0.025 0.1125 -0.05
0.0375 0.1125 -0.05
0.05 0.1125 -0.05
0.0625 0.1125 -0.05
0.075 0.1125 -0.05
0.0875 0.1125 -0.05
0.1 0.1125 -0.05
0.1125 0.1125 -0.05
0.125 0.1125 -0.05
0.1375 0.1125 -0.05
0.15 0.1125 -0.05
0.1625 0.1125 -0.05
0.175 0.1125 -0.05
0.1875 0.1125 -0.05
0.2 0.1125 -0.05
0.2125 0.1125 -0.05
0.225 0.1125 -0.05
0.2375 0.1125 -0.05
0.25 0.1125 -0.05
0.2625 0.1125 -0.05
0.275 0.1125 -0.05
0.2875 0.1125 -0.05
0.3 0.1125 -0.05
0.3125 0.1125 -0.05
0.325 0.1125 -0.05
0.3375 0.1125 -0.05
0.35 0.1125 -0.05
0.3625 0.1125 -0.05
0.375 0.1125 -0.05
0.3875 0.1125 -0.05
0.4 0.1125 -0.05
0.4125 0.1125 -0.05
0.425 0.1125 -0.05
0.4375 0.1125 -0.05
0.45 0.1125 -0.05
0.4625 0.1125 -0.05
0.475 0.1125 -0.05
0.4875 0.1125 -0.05
0.5 0.1125 -0.05
0.5125 0.1125 -0.05
0.525 0.1125 -0.05
0.5375 0.1125 -0.05
0.55 0.1125 -0.05
0.5625 0.1125 -0.05
0.575 0.1125 -0.05
0.5875 0.1125 -0.05
0.6 0.1125 -0.05
0.0 0.125 -0.05
0.0125 0.125 -0.05
0.025 0.125 -0.05
0.0375 0.125 -0.05
0.05 0.125 -0.05
0.0625 0.125 -0.05
0.075 0.125 -0.05
0.0875 0.125 -0.05
0.1 0.125 -0.05
0.1125 0.125 -0.05
0.125 0.125 -0.05
0.1375 0.125 -0.05
0.15 0.125 -0.05
0.1625 0.125 -0.05
0.175 0.125 -0.05
0.1875 0.125 -0.05
0.2 0.125 -0.05
0.2125 0.125 -0.05
0.225 0.125 -0.05
0.2375 0.125 -0.05
0.25 0.125 -0.05
0.2625 0.125 -0.05
0.275 0.125 -0.05
0.2875 0.125 -0.05
0.3 0.125 -0.05
0.3125 0.125 -0.05
0.325 0.125 -0.05
0.3375 0.125 -0.05
0.35 0.125 -0.05
0.3625 0.125 -0.05
0.375 0.125 -0.05
0.3875 0.125 -0.05
0.4 0.125 -0.05
0.4125 0.125 -0.05
0.425 0.125 -0.05
0.4375 0.125 -0.05
0.45 0.125 -0.05
0.4625 0.125 -0.05
0.475 0.125 -0.05
0.4875 0.125 -0.05
0.5 0.125 -0.05
0.5125 0.125 -0.05
0.525 0.125 -0.05
0.5375 0.125 -0.05
0.55 0.125 -0.05
0.5625 0.125 -0.05
0.575 0.125 -0.05
0.5875 0.125 -0.05
0.6 0.125 -0.05
0.0 0.1375 -0.05
0.0125 0.1375 -0.05
0.025 0.1375 -0.05
0.0375 0.1375 -0.05
0.05 0.1375 -0.05
0.0625 0.1375 -0.05
0.075 0.1375 -0.05
0.0875 0.1375 -0.05
[...]
CELL_DATA 16128
SCALARS P float 1
LOOKUP_TABLE default
100000.0014677315
99999.99680650179
100000.00516021288
99999.99021275446
100000.01685270229
99999.96950371237
100000.05356250804
99999.90445449237
100000.16930401207
99999.69749459511
100000.54319393274
99999.01163449686
100001.83089832768
99996.51246760078
100006.89325559034
99985.6969231762
100031.32777259035
99927.2556902519
100178.1137727465
99545.09462842993
101215.74370544108
96766.19638482238
109440.44614185792
76184.40202000448
220726.42446675076
679528.4403438927
1.0198156042938632e6
1.0507270959720756e6
1.0587126546023688e6
1.0712496386153095e6
1.0822036115383175e6
1.0930498049487243e6
1.1033664306014285e6
1.1132760615351188e6
1.1227251696399986e6
1.1317445143685201e6
1.140274831874787e6
1.1483737818649372e6
1.155885461448999e6
1.1630017410807626e6
1.1692926910407033e6
1.1753924029735972e6
1.1800662442137212e6
1.1853326436981412e6
1.1875153128801265e6
1.192915156978007e6
1.1903496149522448e6
1.1993164313319903e6
100000.00152659934
99999.99676752283
100000.0053489623
99999.98991799953
100000.0175598185
99999.9681932544
100000.05621107893
99999.89947717746
100000.17868714269
99999.68037780657
100000.57377584776
99998.9587779743
100001.9186270764
99996.37555431259
100007.0866713438
99985.47811928357
100031.42788405763
99927.75522031005
100175.77388648008
99552.56492132152
101195.57073483168
96815.8137965669
109314.70288837719
76402.59362424575
218211.29591466833
676993.1140242531
1.0220368393674128e6
1.0553825428084135e6
1.063734239144092e6
1.0766678717516195e6
1.0877856906613093e6
1.0987478489395129e6
1.1091522190789743e6
1.1191475208005093e6
1.1286873919657099e6
1.1378055930560809e6
1.146442212344213e6
1.1546530899017453e6
1.1622788953711137e6
1.1695084221677962e6
1.175905873565425e6
1.1821031160826858e6
1.1868544431925628e6
1.1921845837265535e6
1.1943871862086542e6
1.1998148287240095e6
1.197160491379426e6
1.2062265527683601e6
100000.00078853915
99999.99814877365
100000.00306781566
99999.99398434506
100000.01061631842
99999.98036902139
100000.03513624058
99999.9362915618
100000.11456805901
99999.79245414908
100000.3778401062
99999.3020233805
100001.31659661153
99997.43383523602
100005.2223372638
99988.77682879039
100025.56331310359
99938.29403735594
100156.58901314609
99588.29284804594
101126.0883342859
96952.10213985329
108994.00608723384
76964.20533121702
210883.2470925473
665018.0965009854
1.0155905537025112e6
1.052374117070217e6
1.0597687726204388e6
1.0725584473391913e6
1.0834434574113677e6
1.0942324070661096e6
1.1044678205913943e6
1.114296787654311e6
1.1236665564017913e6
1.1326097010909738e6
1.1410675983496306e6
1.1490970459863748e6
1.1565434477905983e6
1.1635959843635696e6
1.1698280872151384e6
1.1758677684267396e6
1.1804868002354982e6
1.1856970393071265e6
1.1878162976456112e6
1.193192498978289e6
1.1904598381793967e6
1.1996822108672925e6
99999.99979245313
100000.00002176763
99999.99998623005
99999.99946970932
100000.00127094971
99999.99670893374
100000.00693822192
99999.98535976338
100000.02946635555
99999.94047280797
100000.12047767249
99999.75020385836
100000.53533231224
99998.79913520617
100002.82864855781
99993.00215046175
100018.03573653381
99951.95078425865
100131.20664348037
99637.27316455627
101025.60303422266
97162.8933947023
108460.68394154886
77994.37881218523
200205.4311717256
648426.1109620996
1.0094674708426567e6
1.052637104647419e6
1.0592675210411455e6
1.0723426967085025e6
1.0832449682012647e6
1.094061999582832e6
1.104296089795325e6
1.1141167643422394e6
1.1234760803820733e6
1.1324118039052177e6
1.140869153051147e6
1.1489061380361377e6
1.156371377234037e6
1.1634517984727644e6
1.169725205815455e6
1.175811505455983e6
1.1804888858506456e6
1.1857557463928459e6
1.1879243722639438e6
1.1933710543824546e6
1.1905762385534905e6
1.2000510150473986e6
99999.99867853004
100000.00210866318
99999.99656318274
100000.00553988575
99999.99096320226
100000.01466422883
99999.9760596642
100000.03890084327
99999.93691498715
100000.10095811279
99999.84212894904
100000.23418021658
99999.6916821087
100000.27695062358
100000.22173858192
99997.65768337158
100009.57549710554
99967.77109201346
100100.48509471248
99699.94000686884
100888.27688344437
97469.86897910383
107642.5950629355
79699.48473406059
186311.2046240673
625296.4669332643
999328.5548191671
1.0512335743412056e6
1.0564358229232866e6
1.06952293814876e6
1.0801849162795611e6
1.0908173845385325e6
1.1008584515739148e6
1.1104875376572371e6
1.1196534861078996e6
1.1283940951209457e6
1.1366562895432648e6
1.1444980258728343e6
1.1517723923958559e6
1.1586642011631536e6
1.1647603391449095e6
1.170672676896238e6
1.175196552230714e6
1.1803159829675534e6
1.1823566389442617e6
1.187728242846441e6
1.184755083665403e6
1.1944912288979457e6
99999.9976001857
100000.0041079718
99999.99329508483
100000.01129527172
99999.9812405143
100000.03150345256
99999.94725050688
100000.08861398474
99999.8513380135
100000.24888409168
99999.58601152933
100000.67966584144
99998.91247271266
100001.65255906814
99997.76057619757
100002.15325135198
100001.12396346916
99984.31949707273
100066.39184900245
99774.17837030053
100714.28420588325
97882.33741634425
106500.19429739045
82245.25637182285
170011.1845643176
596278.8680871137
986121.4678006141
1.0501818471648043e6
1.0539014441014691e6
1.067146579536037e6
1.077665023461188e6
1.0881908132320908e6
1.0981044352642891e6
1.1075999935165008e6
1.1166285732102923e6
1.1252315190628648e6
1.133360516784144e6
1.1410755543539529e6
1.1482362009643135e6
1.155026260419326e6
1.1610428270911654e6
1.166889467501009e6
1.1713762687055694e6
1.1764717226246018e6
1.1784981837321885e6
1.1839140200948603e6
1.1808129907907585e6
1.190925275568907e6
99999.99668743415
100000.00576629519
99999.99059780649
100000.01598416867
99999.97339347136
100000.04494851406
99999.9244784099
100000.12753952952
99999.78490562897
100000.36293539075
99999.38942731661
100001.02137977733
99998.31185140603
100002.72656377715
99995.7925284529
100005.88587290811
99993.7176823531
99999.83662539022
100031.81279533457
99855.48653703548
100510.24608182788
98395.92970735641
105032.31208181389
85741.56460919422
152062.14048046138
561159.2808515674
968485.4368538532
1.0484538686051201e6
1.0505319479853173e6
1.0637989373612166e6
1.0740696042668358e6
1.0843794620843206e6
1.09406291809317e6
1.1033210857470008e6
1.1121058196072795e6
1.1204590385644396e6
1.1283352795217824e6
1.1357944128997542e6
1.1427008629896743e6
1.1492351935856994e6
1.155003614953188e6
1.1606000511829965e6
1.1648510068698719e6
1.169715513163403e6
1.171517650822654e6
1.1768022628429253e6
1.1733942050401124e6
1.183901309232871e6
99999.99602346528
100000.00692519039
99999.98873001902
100000.01914460902
99999.96821168525
100000.05361039417
99999.91016633975
100000.15140311548
99999.7451758915
100000.4296475517
99999.27650544287
100001.21575733642
99997.96907980385
100003.35354102404
99994.58681382927
100008.35228287392
99988.30717443558
100012.50463054304
100000.27715169938
99936.93388248494
100289.80152764104
98986.19442955473
103302.70220528301
90150.34484619019
133471.38580778215
520235.87133856374
945785.6232291798
1.0461835563805042e6
1.0468763510894071e6
1.0601006397935522e6
1.0701455717653465e6
1.0802328433130905e6
1.0896807191131527e6
1.0986905856551563e6
1.1072182530122793e6
1.1153071189077704e6
1.1229166743564496e6
1.1301091613670145e6
1.1367575224912064e6
1.1430437171134567e6
1.1485891318687699e6
1.1539843197344332e6
1.1580773934781826e6
1.162820787116602e6
1.1645290867438705e6
1.1698353018755165e6
1.1662127882933146e6
1.1772748269365141e6
99999.99563316222
100000.00754535272
99999.98775232199
100000.02068260475
99999.96584188662
100000.05725585013
99999.90469459562
100000.15955569613
99999.73331331261
100000.44679851158
99999.2517208378
100001.25335403439
99997.90478856718
100003.48735826739
99994.24857401788
100009.3100717243
99985.46056767178
100020.98219668325
99975.01365653436
100010.79303141161
100072.32755049935
99606.9042963517
101447.21171925533
95221.85423771277
115409.7789723253
473921.5095726778
916934.2292282048
1.0428303712739989e6
1.042802554805421e6
1.0557729823682553e6
1.0655650798393507e6
1.0753595854433002e6
1.0845065653780082e6
1.0931955733302345e6
1.1013873556198666e6
1.1091239587451778e6
1.116367018134375e6
1.1231771236295663e6
1.1294299973900758e6
1.1353019932938698e6
1.1404194698949242e6
1.1453617267774031e6
1.148985517280907e6
1.153246473250372e6
1.154438952229141e6
1.1593793919530388e6
1.155113862934761e6
1.1667142065415517e6
99999.99548702945
100000.00770034657
99999.98753648037
100000.0208583934
99999.96580313926
100000.05679725701
99999.90637854206
100000.1550953819
99999.74369796895
100000.42445948362
99999.29730496829
100001.16488658097
99998.06740846923
100003.21077627027
99994.65571250807
100008.90979378636
99985.09173847035
100024.94990422596
99957.9071771371
100070.29615416136
99879.90509781291
100193.50259151503
99665.1169937393
100445.76687700342
99227.56645038637
423019.5378103083
880898.3885917115
1.0378302133648037e6
1.0384958655442965e6
1.050927907329158e6
1.0604841713941782e6
1.069942436320242e6
1.0787510838986482e6
1.0870742488603315e6
1.09488062302054e6
1.1022109691589929e6
1.1090309602587456e6
1.1154030161781816e6
1.1212119781371397e6
1.1266386302006792e6
1.1313298953436909e6
1.135871983406014e6
1.1391553957668608e6
1.1431477454241796e6
1.1441369800252095e6
1.1490690257489786e6
1.1444927980419714e6
1.1569252112477173e6
99999.99551989295
100000.00753880471
99999.98782795163
100000.02017100385
99999.96718423732
100000.05394579285
99999.91205885595
100000.14386857676
99999.76557470963
100000.38233941047
99999.3773533523
100001.01525588686
99998.34093822609
100002.7276935315
99995.45973213592
100007.72026579641
99986.35788252643
100025.40723701673
99948.70565009961
100111.60199002507
99732.19494938297
100674.58264917482
98184.52500457037
105080.10843262935
86354.81649080767
368741.18770936935
836617.8699919379
1.0302306500974877e6
1.0340339542560716e6
1.045519001354956e6
1.0548544154157746e6
1.0639156232063998e6
1.0723293162990124e6
1.0802188123572734e6
1.0875611971229615e6
1.094391941225713e6
1.1006751696235577e6
1.1064667530506693e6
1.1116466100082733e6
1.116381336555925e6
1.1203065973269e6
1.1239850453141453e6
1.126282672689098e6
1.1291793691206763e6
1.1288757529015676e6
1.13269612463939e6
1.1264802532295203e6
1.1395095769977667e6
99999.99565910606
100000.00722412401
99999.98834771749
100000.01916432266
99999.96898994676
100000.05057572265
99999.91824915458
100000.13239244597
99999.78678880926
100000.34309786119
99999.44970662285
100000.88263946006
99998.58121768374
100002.30147082599
99996.18708063615
100006.57075943683
99987.87742081968
100024.44566043887
99944.96758309186
100135.01702010783
99641.02210182356
100989.3859678967
97209.94542557595
108299.33903495256
78089.69164844339
312756.4289599568
783217.237403456
1.0187407074428332e6
1.0295256020297814e6
1.0395789659681461e6
1.0487200226053284e6
1.0573316116603885e6
1.065300186394015e6
1.0726961511491062e6
1.0795064947423728e6
1.0857613006194883e6
1.09142488275278e6
1.0965512264984583e6
1.1010260441092458e6
1.1050202565761318e6
1.1081946668322436e6
1.1111311927776753e6
1.1127588681926855e6
1.115092073358479e6
1.1143955471634641e6
1.118082292963932e6
1.111520009953075e6
1.1256584130456685e6
99999.99585277982
100000.00687117825
99999.98890083744
100000.01821546697
99999.97053012745
100000.04798932114
99999.9225105617
100000.1252727825
99999.79863072935
100000.32325687217
99999.48298148831
100000.82665625971
99998.67521209156
100002.14527819598
99996.43974347916
100006.19056398158
99988.35668237651
100024.2172046426
99943.5534793347
100143.45203152076
99609.60752776059
101100.54237904132
96879.09965740584
109412.1834505079
75273.14839531688
257153.1936996264
720212.7656138124
1.0016750653057792e6
1.0249934344372161e6
1.0331395550777019e6
1.0420950441112788e6
1.0502040148865615e6
1.0576698891676506e6
1.0645028947584496e6
1.0706967498241302e6
1.0762705761743013e6
1.081179085865228e6
1.0854590801092128e6
1.0889740911715752e6
1.0918579669753746e6
1.0937177433506597e6
1.0950616331755102e6
1.094684166295963e6
1.0945567109135485e6
1.090584612157496e6
1.090904169570051e6
1.079340976430043e6
1.093383917336698e6
99999.99608721011
100000.00650488299
99999.98944878281
100000.01739005894
99999.97169451846
100000.04638220445
99999.92448656817
100000.12319214099
99999.79974936573
100000.32558469172
99999.47138419462
100000.8596102742
99998.5966207412
100002.31527879825
99996.09825560606
100006.830152344
99987.27650467335
100025.75819264856
99942.43272360646
100140.4536367656
99631.83046223795
101013.25027471209
97182.84369861014
108391.32652607084
77834.5161377563
204277.77893791348
647731.5083524897
977005.0987784793
1.0203036571402636e6
1.0262859897365295e6
1.0350161897599145e6
1.0425772349335777e6
1.0494838282648453e6
1.055689796406196e6
1.061192113827814e6
1.0659982563975158e6
1.0700539714799004e6
1.0733832299682328e6
1.075842354776625e6
1.077555539487741e6
1.0781483352092914e6
1.0781429806615424e6
1.0764551374686928e6
1.07505795683885e6
1.070290384132659e6
1.0697164557390856e6
1.0581492902016952e6
1.071434353372821e6
99999.99638581972
100000.0060600914
99999.990110962
100000.01643534916
99999.97297560463
100000.04478147282
99999.92606280545
100000.12252255087
99999.7970635575
100000.33701356337
99999.43936960585
100000.93627454605
99998.42790308934
100002.66403868873
99995.41852618726
100008.06515551193
99985.27943081941
100028.26390518705
99941.98248830158
100128.2345609743
99694.89667608058
100775.0907617755
97962.46954907232
105776.75649557698
84727.67881694624
156801.49307055864
566745.039755022
942387.25420902
1.0149629495814377e6
1.0191398328093948e6
1.02751322902509e6
1.0344910210327388e6
1.0407802755526141e6
1.046294348187044e6
1.0510243085316694e6
1.0549596346422313e6
1.0580244085901268e6
1.060208891220769e6
1.0613205365386752e6
1.0614045606160874e6
1.059955242250769e6
1.0572881903293084e6
1.0519242013170605e6
1.0454081804107612e6
1.032747060339482e6
1.0221353636648097e6
992788.9063228779
999277.2938751408
99999.99678927091
100000.00542616271
99999.9910882702
100000.01492907826
99999.97519781468
100000.04155048239
99999.93044255038
100000.1170165386
99999.8026952105
100000.33415421902
99999.4318307575
100000.97108929972
99998.33070361456
100002.88998186281
99994.9526845062
100008.91433982125
99984.0199186205
100029.21087124092
99945.1605688059
100106.47988379617
99784.0229751645
100460.73648767767
98964.7587922814
102505.15593266221
93887.20534526276
117800.63365202134
479361.3798067289
895263.9388135672
1.0078439122358302e6
1.0118423891522385e6
1.0196101531881741e6
1.0259890507961989e6
1.0316106987204379e6
1.0363793672831674e6
1.0402718717411667e6
1.0432583494584695e6
1.0452402469140263e6
1.0461752751727272e6
1.045835780612727e6
1.0442126138780364e6
1.0407740857935342e6
1.0357584889215317e6
1.0278328676415306e6
1.0183475363525336e6
1.0035971040648558e6
988744.3131390885
960617.8545628737
927575.0569783449
99999.99732507805
100000.00451863841
99999.99253804283
100000.01252875742
99999.97904975293
100000.035287446
99999.94043852651
100000.10105989405
99999.82779256374
100000.29499500102
99999.49201898005
100000.8796104019
99998.46862567968
100002.67965366534
99995.29145025145
100008.2936532832
99985.39986025712
100025.54102871788
99955.99523492284
100073.16278495837
99886.59964493461
100144.6431775662
99916.18609812844
99583.13353110148
102483.76835481505
90489.50653700184
389169.4823825859
833229.9285513776
996891.8517380303
1.0044970356130905e6
1.0113213795687575e6
1.0171108006498686e6
1.0220277388768041e6
1.0260088978023933e6
1.0290089659482986e6
1.0309755534203605e6
1.0317787494088479e6
1.0313285332935057e6
1.0293286194869619e6
1.025650827311981e6
1.0195801253106421e6
1.0109633225687249e6
997810.8348986126
979875.2293081286
950437.7691693084
907623.9292269162
822223.2836923304
670953.1131809064
99999.9979809257
100000.00334470184
99999.99445814698
100000.00920685819
99999.98463281682
100000.02571075055
99999.95674806283
100000.07304000185
99999.87595362085
100000.21173458037
99999.63652668723
100000.62716069365
99998.9129826176
100001.88908754331
99996.71876624948
100005.66219836305
99990.39505879703
100015.6745689542
99976.48063428733
100028.03208195875
99992.2043685922
99882.3000328343
100601.13953424872
97736.92647307437
107812.16855418902
76953.70138641787
301156.4431310377
754916.280051382
979086.4159519136
997116.2480702183
1.0026865484417679e6
1.0079080994205065e6
1.0120995831526647e6
1.0152663446801566e6
1.0173394370091171e6
1.0182440536937333e6
1.0178193677881613e6
1.0159254398685688e6
1.0122058057567264e6
1.0064235056613326e6
997726.3751183696
985696.7973433395
968053.096250809
943866.4672513645
906192.8850653078
851645.7389712451
756624.0254212038
601080.0485918269
99999.99869551005
100000.00202807259
99999.9966410824
100000.00534791997
99999.99126552613
100000.0140595878
99999.97713520084
100000.03701820786
99999.93980257002
100000.09779333332
99999.84092395537
100000.25823245787
99999.58272695793
100000.66603919245
99998.96481239333
100001.51533692465
99998.08769831755
100001.35006146366
100003.21849265437
99978.15631589302
100084.9728158691
99712.479206155
100907.53859389451
97235.40587583288
108567.6223762472
76464.04080411652
220847.07425687768
660925.6665212814
950741.5328643452
989528.8296543617
993825.782528558
998462.9397991254
1.0019151151322675e6
1.0042507826377114e6
1.0053797799916645e6
1.0052069817604395e6
1.0035399311045778e6
1.0001992949473418e6
994772.3663147399
986941.2108946583
975758.1586039732
960658.1404414072
939253.6331125115
910483.9236679687
867793.1454571892
808935.53900711
714963.4398118224
582364.1248294384
99999.9993730654
100000.00077638446
99999.9987294444
100000.00164093781
99999.99767912911
100000.00272958663
99999.99709894614
100000.00150607538
100000.0032112685
99999.9838191869
100000.04684726826
99999.88412503964
100000.265496321
99999.41536736338
100001.25995345862
99997.30772220611
100005.7577885441
99987.56015844726
100027.33618783682
99938.34862960946
100143.01953026348
99656.16020793653
100853.28209483132
97826.33245459892
105861.96815323869
85051.85104900615
153617.97737523576
554044.7315662205
907654.9992081284
980975.3711174171
984924.3510157506
988871.8949829524
991572.6260938826
993069.8180573498
993256.5554158203
992018.1079913732
989137.3779311911
984404.11077406
977369.2501316456
967669.6443023456
954315.9127458889
936717.9718152273
912521.4343774128
880910.6683758382
835876.183323633
777113.7119076067
688827.4281639722
578330.2376696711
99999.99991603654
99999.99980339014
100000.00035219255
99999.99880638756
100000.00253547728
99999.99426701112
100000.01181464703
99999.97570468168
100000.04858893063
99999.90354955826
100000.18942934783
99999.62976647097
100000.72054309594
99998.60046063895
100002.71566632466
99994.72927192043
100010.23885806865
99980.07729691193
100038.82116675693
99924.22772933583
100147.75081855712
99712.43232853926
100553.92788235903
98952.32853502042
101930.79601326196
96863.6816040853
105093.88509993891
439669.5985829957
845190.2003344321
969260.0126821867
976075.1181619298
979191.027872935
981148.500512926
981819.5829665847
981088.8968736886
978823.658302076
974792.8975945921
968766.320538793
960278.9013023231
948956.2040912837
933815.6789892899
914322.3585216659
888258.5777969733
855171.7806294812
809751.4558496502
753159.5235484826
672627.2126704943
579175.3286312761
100000.00026065944
99999.99924368146
100000.00127526914
99999.99729282223
100000.00500804152
99999.99023015272
100000.0183558409
99999.96514833513
100000.06544138592
99999.87695790069
100000.23054706624
99999.56805962292
100000.80839081467
99998.48759647238
100002.82660739898
99994.72687264724
100009.79846318233
99981.92781073698
100032.85913340311
99941.7919322104
100097.90108356398
99852.09061739162
100162.8000087939
100046.49527861724
98804.77188561123
105772.11519671207
79654.42058891986
326466.22383103333
759878.3343867342
950233.9756095543
967118.5633397686
969434.1388188357
970695.7302079605
970582.2301676512
968982.4776206542