# vtk DataFile Version 2.0
JuliaCFD
ASCII
DATASET UNSTRUCTURED_GRID

POINTS 32898 float
0.0 0.0 -0.05
0.0125 0.0 -0.05
0.025 0.0 -0.05
0.0375 0.0 -0.05
0.05 0.0 -0.05
0.0625 0.0 -0.05
0.075 0.0 -0.05
0.0875 0.0 -0.05
0.1 0.0 -0.05
0.1125 0.0 -0.05
0.125 0.0 -0.05
0.1375 0.0 -0.05
0.15 0.0 -0.05
0.1625 0.0 -0.05
0.175 0.0 -0.05
0.1875 0.0 -0.05
0.2 0.0 -0.05
0.2125 0.0 -0.05
0.225 0.0 -0.05
0.2375 0.0 -0.05
0.25 0.0 -0.05
0.2625 0.0 -0.05
0.275 0.0 -0.05
0.2875 0.0 -0.05
0.3 0.0 -0.05
0.3125 0.0 -0.05
0.325 0.0 -0.05
0.3375 0.0 -0.05
0.35 0.0 -0.05
0.3625 0.0 -0.05
0.375 0.0 -0.05
0.3875 0.0 -0.05
0.4 0.0 -0.05
0.4125 0.0 -0.05
0.425 0.0 -0.05
0.4375 0.0 -0.05
0.45 0.0 -0.05
0.4625 0.0 -0.05
0.475 0.0 -0.05
0.4875 0.0 -0.05
0.5 0.0 -0.05
0.5125 0.0 -0.05
0.525 0.0 -0.05
0.5375 0.0 -0.05
0.55 0.0 -0.05
0.5625 0.0 -0.05
0.575 0.0 -0.05
0.5875 0.0 -0.05
0.6 0.0 -0.05
0.0 0.0125 -0.05
0.0125 0.0125 -0.05
0.025 0.0125 -0.05
0.0375 0.0125 -0.05
0.05 0.0125 -0.05
0.0625 0.0125 -0.05
0.075 0.0125 -0.05
0.0875 0.0125 -0.05
0.1 0.0125 -0.05
0.1125 0.0125 -0.05
0.125 0.0125 -0.05
0.1375 0.0125 -0.05
0.15 0.0125 -0.05
0.1625 0.0125 -0.05
0.175 0.0125 -0.05
0.1875 0.0125 -0.05
0.2 0.0125 -0.05
0.2125 0.0125 -0.05
0.225 0.0125 -0.05
0.2375 0.0125 -0.05
0.25 0.0125 -0.05
0.2625 0.0125 -0.05
0.275 0.0125 -0.05
0.2875 0.0125 -0.05
0.3 0.0125 -0.05
0.3125 0.0125 -0.05
0.325 0.0125 -0.05
0.3375 0.0125 -0.05
0.35 0.0125 -0.05
0.3625 0.0125 -0.05
0.375 0.0125 -0.05
0.3875 0.0125 -0.05
0.4 0.0125 -0.05
0.4125 0.0125 -0.05
0.425 0.0125 -0.05
0.4375 0.0125 -0.05
0.45 0.0125 -0.05
0.4625 0.0125 -0.05
0.475 0.0125 -0.05
0.4875 0.0125 -0.05
0.5 0.0125 -0.05
0.5125 0.0125 -0.05
0.525 0.0125 -0.05
0.5375 0.0125 -0.05
0.55 0.0125 -0.05
0.5625 0.0125 -0.05
0.575 0.0125 -0.05
0.5875 0.0125 -0.05
0.6 0.0125 -0.05
0.0 0.025 -0.05
0.0125 0.025 -0.05
0.025 0.025 -0.05
0.0375 0.025 -0.05
0.05 0.025 -0.05
0.0625 0.025 -0.05
0.075 0.025 -0.05
0.0875 0.025 -0.05
0.1 0.025 -0.05
0.1125 0.025 -0.05
0.125 0.025 -0.05
0.1375 0.025 -0.05
0.15 0.025 -0.05
0.1625 0.025 -0.05
0.175 0.025 -0.05
0.1875 0.025 -0.05
0.2 0.025 -0.05
0.2125 0.025 -0.05
0.225 0.025 -0.05
0.2375 0.025 -0.05
0.25 0.025 -0.05
0.2625 0.025 -0.05
0.275 0.025 -0.05
0.2875 0.025 -0.05
0.3 0.025 -0.05
0.3125 0.025 -0.05
0.325 0.025 -0.05
0.3375 0.025 -0.05
0.35 0.025 -0.05
0.3625 0.025 -0.05
0.375 0.025 -0.05
0.3875 0.025 -0.05
0.4 0.025 -0.05
0.4125 0.025 -0.05
0.425 0.025 -0.05
0.4375 0.025 -0.05
0.45 0.025 -0.05
0.4625 0.025 -0.05
0.475 0.025 -0.05
0.4875 0.025 -0.05
0.5 0.025 -0.05
0.5125 0.025 -0.05
0.525 0.025 -0.05
0.5375 0.025 -0.05
0.55 0.025 -0.05
0.5625 0.025 -0.05
0.575 0.025 -0.05
0.5875 0.025 -0.05
0.6 0.025 -0.05
0.0 0.0375 -0.05
0.0125 0.0375 -0.05
0.025 0.0375 -0.05
0.0375 0.0375 -0.05
0.05 0.0375 -0.05
0.0625 0.0375 -0.05
0.075 0.0375 -0.05
0.0875 0.0375 -0.05
0.1 0.0375 -0.05
0.1125 0.0375 -0.05
0.125 0.0375 -0.05
0.1375 0.0375 -0.05
0.15 0.0375 -0.05
0.1625 0.0375 -0.05
0.175 0.0375 -0.05
0.1875 0.0375 -0.05
0.2 0.0375 -0.05
0.2125 0.0375 -0.05
0.225 0.0375 -0.05
0.2375 0.0375 -0.05
0.25 0.0375 -0.05
0.2625 0.0375 -0.05
0.275 0.0375 -0.05
0.2875 0.0375 -0.05
0.3 0.0375 -0.05
0.3125 0.0375 -0.05
0.325 0.0375 -0.05
0.3375 0.0375 -0.05
0.35 0.0375 -0.05
0.3625 0.0375 -0.05
0.375 0.0375 -0.05
0.3875 0.0375 -0.05
0.4 0.0375 -0.05
0.4125 0.0375 -0.05
0.425 0.0375 -0.05
0.4375 0.0375 -0.05
0.45 0.0375 -0.05
0.4625 0.0375 -0.05
0.475 0.0375 -0.05
0.4875 0.0375 -0.05
0.5 0.0375 -0.05
0.5125 0.0375 -0.05
0.525 0.0375 -0.05
0.5375 0.0375 -0.05
0.55 0.0375 -0.05
0.5625 0.0375 -0.05
0.575 0.0375 -0.05
0.5875 0.0375 -0.05
0.6 0.0375 -0.05
0.0 0.05 -0.05
0.0125 0.05 -0.05
0.025 0.05 -0.05
0.0375 0.05 -0.05
0.05 0.05 -0.05
0.0625 0.05 -0.05
0.075 0.05 -0.05
0.0875 0.05 -0.05
0.1 0.05 -0.05
0.1125 0.05 -0.05
0.125 0.05 -0.05
0.1375 0.05 -0.05
0.15 0.05 -0.05
0.1625 0.05 -0.05
0.175 0.05 -0.05
0.1875 0.05 -0.05
0.2 0.05 -0.05
0.2125 0.05 -0.05
0.225 0.05 -0.05
0.2375 0.05 -0.05
0.25 0.05 -0.05
0.2625 0.05 -0.05
0.275 0.05 -0.05
0.2875 0.05 -0.05
0.3 0.05 -0.05
0.3125 0.05 -0.05
0.325 0.05 -0.05
0.3375 0.05 -0.05
0.35 0.05 -0.05
0.3625 0.05 -0.05
0.375 0.05 -0.05
0.3875 0.05 -0.05
0.4 0.05 -0.05
0.4125 0.05 -0.05
0.425 0.05 -0.05
0.4375 0.05 -0.05
0.45 0.05 -0.05
0.4625 0.05 -0.05
0.475 0.05 -0.05
0.4875 0.05 -0.05
0.5 0.05 -0.05
0.5125 0.05 -0.05
0.525 0.05 -0.05
0.5375 0.05 -0.05
0.55 0.05 -0.05
0.5625 0.05 -0.05
0.575 0.05 -0.05
0.5875 0.05 -0.05
0.6 0.05 -0.05
0.0 0.0625 -0.05
0.0125 0.0625 -0.05
0.025 0.0625 -0.05
0.0375 0.0625 -0.05
0.05 0.0625 -0.05
0.0625 0.0625 -0.05
0.075 0.0625 -0.05
0.0875 0.0625 -0.05
0.1 0.0625 -0.05
0.1125 0.0625 -0.05
0.125 0.0625 -0.05
0.1375 0.0625 -0.05
0.15 0.0625 -0.05
0.1625 0.0625 -0.05
0.175 0.0625 -0.05
0.1875 0.0625 -0.05
0.2 0.0625 -0.05
0.2125 0.0625 -0.05
0.225 0.0625 -0.05
0.2375 0.0625 -0.05
0.25 0.0625 -0.05
0.2625 0.0625 -0.05
0.275 0.0625 -0.05
0.2875 0.0625 -0.05
0.3 0.0625 -0.05
0.3125 0.0625 -0.05
0.325 0.0625 -0.05
0.3375 0.0625 -0.05
0.35 0.0625 -0.05
0.3625 0.0625 -0.05
0.375 0.0625 -0.05
0.3875 0.0625 -0.05
0.4 0.0625 -0.05
0.4125 0.0625 -0.05
0.425 0.0625 -0.05
0.4375 0.0625 -0.05
0.45 0.0625 -0.05
0.4625 0.0625 -0.05
0.475 0.0625 -0.05
0.4875 0.0625 -0.05
0.5 0.0625 -0.05
0.5125 0.0625 -0.05
0.525 0.0625 -0.05
0.5375 0.0625 -0.05
0.55 0.0625 -0.05
0.5625 0.0625 -0.05
0.575 0.0625 -0.05
0.5875 0.0625 -0.05
0.6 0.0625 -0.05
0.0 0.075 -0.05
0.0125 0.075 -0.05
0.025 0.075 -0.05
0.0375 0.075 -0.05
0.05 0.075 -0.05
0.0625 0.075 -0.05
0.075 0.075 -0.05
0.0875 0.075 -0.05
0.1 0.075 -0.05
0.1125 0.075 -0.05
0.125 0.075 -0.05
0.1375 0.075 -0.05
0.15 0.075 -0.05
0.1625 0.075 -0.05
0.175 0.075 -0.05
0.1875 0.075 -0.05
0.2 0.075 -0.05
0.2125 0.075 -0.05
0.225 0.075 -0.05
0.2375 0.075 -0.05
0.25 0.075 -0.05
0.2625 0.075 -0.05
0.275 0.075 -0.05
0.2875 0.075 -0.05
0.3 0.075 -0.05
0.3125 0.075 -0.05
0.325 0.075 -0.05
0.3375 0.075 -0.05
0.35 0.075 -0.05
0.3625 0.075 -0.05
0.375 0.075 -0.05
0.3875 0.075 -0.05
0.4 0.075 -0.05
0.4125 0.075 -0.05
0.425 0.075 -0.05
0.4375 0.075 -0.05
0.45 0.075 -0.05
0.4625 0.075 -0.05
0.475 0.075 -0.05
0.4875 0.075 -0.05
0.5 0.075 -0.05
0.5125 0.075 -0.05
0.525 0.075 -0.05
0.5375 0.075 -0.05
0.55 0.075 -0.05
0.5625 0.075 -0.05
0.575 0.075 -0.05
0.5875 0.075 -0.05
0.6 0.075 -0.05
0.0 0.0875 -0.05
0.0125 0.0875 -0.05
0.025 0.0875 -0.05
0.0375 0.0875 -0.05
0.05 0.0875 -0.05
0.0625 0.0875 -0.05
0.075 0.0875 -0.05
0.0875 0.0875 -0.05
0.1 0.0875 -0.05
0.1125 0.0875 -0.05
0.125 0.0875 -0.05
0.1375 0.0875 -0.05
0.15 0.0875 -0.05
0.1625 0.0875 -0.05
0.175 0.0875 -0.05
0.1875 0.0875 -0.05
0.2 0.0875 -0.05
0.2125 0.0875 -0.05
0.225 0.0875 -0.05
0.2375 0.0875 -0.05
0.25 0.0875 -0.05
0.2625 0.0875 -0.05
0.275 0.0875 -0.05
0.2875 0.0875 -0.05
0.3 0.0875 -0.05
0.3125 0.0875 -0.05
0.325 0.0875 -0.05
0.3375 0.0875 -0.05
0.35 0.0875 -0.05
0.3625 0.0875 -0.05
0.375 0.0875 -0.05
0.3875 0.0875 -0.05
0.4 0.0875 -0.05
0.4125 0.0875 -0.05
0.425 0.0875 -0.05
0.4375 0.0875 -0.05
0.45 0.0875 -0.05
0.4625 0.0875 -0.05
0.475 0.0875 -0.05
0.4875 0.0875 -0.05
0.5 0.0875 -0.05
0.5125 0.0875 -0.05
0.525 0.0875 -0.05
0.5375 0.0875 -0.05
0.55 0.0875 -0.05
0.5625 0.0875 -0.05
0.575 0.0875 -0.05
0.5875 0.0875 -0.05
0.6 0.0875 -0.05
0.0 0.1 -0.05
0.0125 0.1 -0.05
0.025 0.1 -0.05
0.0375 0.1 -0.05
0.05 0.1 -0.05
0.0625 0.1 -0.05
0.075 0.1 -0.05
0.0875 0.1 -0.05
0.1 0.1 -0.05
0.1125 0.1 -0.05
0.125 0.1 -0.05
0.1375 0.1 -0.05
0.15 0.1 -0.05
0.1625 0.1 -0.05
0.175 0.1 -0.05
0.1875 0.1 -0.05
0.2 0.1 -0.05
0.2125 0.1 -0.05
0.225 0.1 -0.05
0.2375 0.1 -0.05
0.25 0.1 -0.05
0.2625 0.1 -0.05
0.275 0.1 -0.05
0.2875 0.1 -0.05
0.3 0.1 -0.05
0.3125 0.1 -0.05
0.325 0.1 -0.05
0.3375 0.1 -0.05
0.35 0.1 -0.05
0.3625 0.1 -0.05
0.375 0.1 -0.05
0.3875 0.1 -0.05
0.4 0.1 -0.05
0.4125 0.1 -0.05
0.425 0.1 -0.05
0.4375 0.1 -0.05
0.45 0.1 -0.05
0.4625 0.1 -0.05
0.475 0.1 -0.05
0.4875 0.1 -0.05
0.5 0.1 -0.05
0.5125 0.1 -0.05
0.525 0.1 -0.05
0.5375 0.1 -0.05
0.55 0.1 -0.05
0.5625 0.1 -0.05
0.575 0.1 -0.05
0.5875 0.1 -0.05
0.6 0.1 -0.05
0.0 0.1125 -0.05
0.0125 0.1125 -0.05
0.025 0.1125 -0.05
0.0375 0.1125 -0.05
0.05 0.1125 -0.05
0.0625 0.1125 -0.05
0.075 0.1125 -0.05
0.0875 0.1125 -0.05
0.1 0.1125 -0.05
0.1125 0.1125 -0.05
0.125 0.1125 -0.05
0.1375 0.1125 -0.05
0.15 0.1125 -0.05
0.1625 0.1125 -0.05
0.175 0.1125 -0.05
0.1875 0.1125 -0.05
0.2 0.1125 -0.05
0.2125 0.1125 -0.05
0.225 0.1125 -0.05
0.2375 0.1125 -0.05
0.25 0.1125 -0.05
0.2625 0.1125 -0.05
0.275 0.1125 -0.05
0.2875 0.1125 -0.05
0.3 0.1125 -0.05
0.3125 0.1125 -0.05
0.325 0.1125 -0.05
0.3375 0.1125 -0.05
0.35 0.1125 -0.05
0.3625 0.1125 -0.05
0.375 0.1125 -0.05
0.3875 0.1125 -0.05
0.4 0.1125 -0.05
0.4125 0.1125 -0.05
0.425 0.1125 -0.05
0.4375 0.1125 -0.05
0.45 0.1125 -0.05
0.4625 0.1125 -0.05
0.475 0.1125 -0.05
0.4875 0.1125 -0.05
0.5 0.1125 -0.05
0.5125 0.1125 -0.05
0.525 0.1125 -0.05
0.5375 0.1125 -0.05
0.55 0.1125 -0.05
0.5625 0.1125 -0.05
0.575 0.1125 -0.05
0.5875 0.1125 -0.05
0.6 0.1125 -0.05
0.0 0.125 -0.05
0.0125 0.125 -0.05
0.025 0.125 -0.05
0.0375 0.125 -0.05
0.05 0.125 -0.05
0.0625 0.125 -0.05
0.075 0.125 -0.05
0.0875 0.125 -0.05
0.1 0.125 -0.05
0.1125 0.125 -0.05
0.125 0.125 -0.05
0.1375 0.125 -0.05
0.15 0.125 -0.05
0.1625 0.125 -0.05
0.175 0.125 -0.05
0.1875 0.125 -0.05
0.2 0.125 -0.05
0.2125 0.125 -0.05
0.225 0.125 -0.05
0.2375 0.125 -0.05
0.25 0.125 -0.05
0.2625 0.125 -0.05
0.275 0.125 -0.05
0.2875 0.125 -0.05
0.3 0.125 -0.05
0.3125 0.125 -0.05
0.325 0.125 -0.05
0.3375 0.125 -0.05
0.35 0.125 -0.05
0.3625 0.125 -0.05
0.375 0.125 -0.05
0.3875 0.125 -0.05
0.4 0.125 -0.05
0.4125 0.125 -0.05
0.425 0.125 -0.05
0.4375 0.125 -0.05
0.45 0.125 -0.05
0.4625 0.125 -0.05
0.475 0.125 -0.05
0.4875 0.125 -0.05
0.5 0.125 -0.05
0.5125 0.125 -0.05
0.525 0.125 -0.05
0.5375 0.125 -0.05
0.55 0.125 -0.05
0.5625 0.125 -0.05
0.575 0.125 -0.05
0.5875 0.125 -0.05
0.6 0.125 -0.05
0.0 0.1375 -0.05
0.0125 0.1375 -0.05
0.025 0.1375 -0.05
0.0375 0.1375 -0.05
0.05 0.1375 -0.05
0.0625 0.1375 -0.05
0.075 0.1375 -0.05
0.0875 0.1375 -0.05
[...]
CELL_DATA 16128
SCALARS P float 1
LOOKUP_TABLE default
99999.99998340158
100000.00003876357
99999.99993222534
100000.00012121227
99999.99980928037
100000.00027315234
99999.99968206577
100000.00020510105
100000.00035094237
99999.99805603457
100000.00572323459
99999.98621801539
100000.02969197415
99999.94083337503
100000.11060518991
99999.80504850669
100000.32347258224
99999.49939611128
100000.70649457937
99999.14118869446
100000.73757688414
100000.16184756857
99997.1095459998
100009.573018581
99975.61846776564
100055.96481484093
99877.14728016543
100266.90336953271
99422.94625914353
101190.14234312097
98033.79594456125
100675.35385786068
117966.38529928942
524316.9488512424
1.0874071983859167e6
1.258353993162712e6
1.2053081517565341e6
1.2292774893848344e6
1.2329607851223021e6
1.2362768350631376e6
1.242729347114486e6
1.2460437809895286e6
1.2495429158726726e6
1.2529636210321716e6
1.253837545752143e6
1.2576589249345993e6
1.2548075171359524e6
1.2620187790582601e6
99999.99998367595
100000.00003837168
99999.99993257354
100000.00012122626
99999.9998079052
100000.00027794884
99999.99966956956
100000.00023313345
100000.00029389265
99999.99816297823
100000.00553828868
99999.98650974706
100000.0292875118
99999.9412783676
100000.11039136945
99999.8043522429
100000.32650915491
99999.4914743744
100000.72320842934
99999.11125428221
100000.78287130747
100000.10942809573
99997.1378827683
100009.64131075765
99975.34628281747
100056.52878516563
99876.44081869366
100267.45902776736
99421.1403309403
101210.07495958342
97914.93006405911
101205.27948904395
116029.19108618655
519189.0235857801
1.0867318103162e6
1.2650644294149973e6
1.2129592791455493e6
1.2373461583970066e6
1.2415526970830946e6
1.2448503437872767e6
1.2512381515833542e6
1.2542994308547066e6
1.257415143531957e6
1.2604169117980925e6
1.260858859415005e6
1.264361036308875e6
1.2611733755897135e6
1.268411603140074e6
99999.9999845866
100000.00003676451
99999.99993471678
100000.00011863222
99999.99980923784
100000.00028175145
99999.99965087221
100000.0002867531
100000.00016595822
99999.99843643462
100000.00499823382
99999.98750579786
100000.02756667306
99999.94404255216
100000.10633760599
99999.80950349229
100000.32170689049
99999.49139300316
100000.73930906592
99999.05430398925
100000.93164099507
99999.76791582753
99997.86237252087
100008.17958341965
99978.18662320434
100051.15703890726
99886.28677556915
100250.7734240019
99442.63399835087
101218.41519915497
97689.173864504
102463.17055890974
110450.70239785609
500421.8143864634
1.0695090202575084e6
1.2596820060300916e6
1.2077284528912823e6
1.230088889510441e6
1.2346610783260055e6
1.2375224705672425e6
1.2438682270829293e6
1.2470337366052358e6
1.2503022646947713e6
1.253559486084194e6
1.2542370458320747e6
1.25797379422701e6
1.2548685274180744e6
1.2623790661975413e6
99999.99998591798
100000.00003436278
99999.99993800418
100000.00011446123
99999.9998120184
100000.00028568711
99999.9996264804
100000.00036038236
99999.99998577147
99999.998828643
100000.00421240191
99999.98897596306
100000.02499103718
99999.94825121708
100000.10003338402
99999.81781906937
100000.31321599148
99999.49397298331
100000.75813285366
99998.97979245947
100001.13241848485
99999.30482840296
99998.84116492675
100006.22922071848
99981.93178402733
100044.1444008415
99899.23307230776
100228.15787433357
99474.89193404082
101217.12117175573
97415.25401363334
104170.0014423095
102958.73239839172
474133.92585814773
1.0485972021396833e6
1.2594036845727034e6
1.2089341817081142e6
1.2294354430842598e6
1.2352476591392376e6
1.2378653133197885e6
1.244301913673517e6
1.247505695301924e6
1.2507028638342228e6
1.2539348029741107e6
1.2545344149614526e6
1.258270566786853e6
1.2550094418411877e6
1.2627859811076527e6
99999.99998762312
100000.00003119803
99999.99994248745
100000.0001084242
99999.99981712572
100000.00028760472
99999.99960105613
100000.00044467182
99999.99977059428
99999.99930953827
100000.00322843723
99999.99085071456
100000.02164355412
99999.95383618871
100000.09142726586
99999.82968092023
100000.29978771177
99999.50225675148
100000.77279080392
99998.90155963071
100001.35807834678
99998.76855255224
99999.98879717781
100003.9279385077
99986.3559797141
100035.81258549653
99914.87175231529
100199.42986831587
99521.95404442424
101183.21647032417
97186.50164420925
106027.52008481493
94390.43112721726
438572.7141844176
1.0167035214198882e6
1.2546859265078753e6
1.2068762007469498e6
1.2236713546202655e6
1.230647771328746e6
1.2326261314829462e6
1.2389100780993279e6
1.2420801026203032e6
1.2451705109532254e6
1.2484229780206622e6
1.2490064979882229e6
1.252814002880496e6
1.2494277742944444e6
1.2575586760175973e6
99999.99998962822
100000.00002734749
99999.99994816461
100000.00010028695
99999.9998254652
100000.0002851204
99999.99958011792
100000.0005281958
99999.99954255375
99999.99983964415
100000.00211249907
99999.99303019709
100000.01765928039
99999.96066010068
100000.08057093357
99999.84538335957
100000.28028986117
99999.51932061675
100000.77651039914
99998.8335126906
100001.58311144914
99998.20429193309
100001.23239887111
100001.39297860963
99991.28094474156
100026.45870263047
99932.75240154342
100164.91581429158
99586.60570743997
101094.3997189641
97113.26959391712
107563.55357500423
86352.60347865273
395825.03935354494
975463.0897197291
1.2485780083588765e6
1.2066357270478068e6
1.218800606999194e6
1.2275421334227207e6
1.2290514815419868e6
1.235279227154263e6
1.2385135087279326e6
1.2415144388015033e6
1.2448011264653606e6
1.2453597984768022e6
1.249259783395525e6
1.24570993889109e6
1.2543000139500764e6
99999.9999918338
100000.00002293957
99999.99995494988
100000.00008994252
99999.99983778075
100000.0002759427
99999.99956933603
100000.00059849379
99999.99932657588
100000.00037236775
100000.00094476323
99999.99538624761
100000.0132188914
99999.96850794619
100000.06761001256
99999.86509646397
100000.25362255785
99999.54830601528
100000.76188923759
99998.79059133746
100001.7795262391
99997.65890935721
100002.49822229832
99998.7273003639
99996.56418922357
100016.2794292332
99952.4960972271
100125.23180712991
99669.14785541676
100936.92265115448
97284.84116463637
108284.86260351207
80403.85768777745
346853.7005020687
922404.5695762748
1.2375233653479058e6
1.2060135507757447e6
1.2117993101636018e6
1.2223031187951104e6
1.2231860124117618e6
1.229076998262127e6
1.232222572467968e6
1.2349475786658155e6
1.2381108801156234e6
1.2384882914401523e6
1.2423658898544973e6
1.238499565454521e6
1.247618540544565e6
99999.99999411666
100000.00001816671
99999.99996263943
100000.00007750343
99999.9998544639
100000.00025832171
99999.9995737643
100000.00064355976
99999.99914843684
100000.00085717112
99999.99981774187
99999.9977634119
100000.00856211854
99999.9770613711
100000.0528716125
99999.88874919123
100000.21899027716
99999.59226915613
100000.72108624947
99998.79009760417
100001.91374591926
99997.19231112432
100003.69095590351
99996.0683376551
100002.03515695866
100005.4791226496
99973.76506273006
100081.33086566406
99766.91299097329
100711.22227399943
97743.4987611974
107799.55974491186
78005.2467212646
293746.9806427669
857022.070120742
1.2203590309819551e6
1.2063066736090227e6
1.204310919765193e6
1.2166642048325788e6
1.2171163128098447e6
1.2226134624798733e6
1.2257527339265982e6
1.2282660756430894e6
1.2314061736702437e6
1.2317253597502266e6
1.2357369128129098e6
1.2316317541840822e6
1.2414787729789657e6
99999.9999963341
100000.00001328258
99999.99997089207
100000.0000633747
99999.99987533854
100000.00023148683
99999.99959688015
100000.00065346302
99999.99903176876
100000.0012433568
99999.99883100652
99999.99997954589
100000.00399478989
99999.98585254274
100000.03696581269
99999.91576113077
100000.17634813933
99999.6532935122
100000.64683061985
99998.85040225905
100001.94559581103
99996.88268048334
100004.67190744603
99993.6355755232
100007.386539401
99994.42930563664
99996.07639315345
100034.46683757061
99874.60508568067
100435.48988790128
98453.07595012171
106038.91895303382
79977.59823026191
238952.82513898573
778506.3209717387
1.1940037337843485e6
1.2068502218003094e6
1.195833502325565e6
1.2095237332298025e6
1.2095981611075143e6
1.2143225999601383e6
1.2171895667614457e6
1.2191462406954453e6
1.2218748192014713e6
1.221698160078805e6
1.2254532745537222e6
1.2206512921077183e6
1.2312528649778627e6
99999.99999833952
100000.00000858805
99999.99997923402
100000.00004828563
99999.99989953068
100000.00019605503
99999.99963967319
100000.00062239684
99999.9989943908
100000.00148682976
99999.998081902
100000.00183835179
99999.99988487168
99999.99424601124
100000.02089494784
99999.94476254044
100000.12712006128
99999.73110202528
100000.53515782575
99998.98685114358
100001.83407497435
99996.82350909161
100005.25131777173
99991.7804221688
100012.03199203315
99984.02439018521
100018.12800849654
99987.16392935101
99983.96899265019
100144.11103610524
99294.41392143782
103409.07277962401
86010.86227802496
185837.61326316974
687263.7536032884
1.155269203568169e6
1.2072645427779427e6
1.1871597170134822e6
1.2012856354704415e6
1.2013278703576117e6
1.205143446830907e6
1.2078023415013829e6
1.2093479065228107e6
1.211893349734488e6
1.2115751618494021e6
1.2154883768093695e6
1.210362355749629e6
1.2220921315527852e6
99999.99999999706
100000.00000440072
99999.99998709737
100000.00003325244
99999.9999254401
100000.0001542439
99999.99969986698
100000.0005505911
99999.99904379687
100000.00155892248
99999.99764856107
100000.00315615104
99999.99662272785
100000.00147359316
100000.0060584678
99999.973403375
100000.07483209901
99999.82129492504
100000.38932637354
99999.20352151182
100001.55214287687
99997.09914420111
100005.2185069637
99990.96569359601
100015.05179565115
99975.94505749836
100037.06589611818
99944.57592261126
100082.81797804199
99882.07650419779
100089.85518451838
100649.64845227076
94436.30342734854
138761.39487059755
584976.104398439
1.0999829613114332e6
1.2057121249465838e6
1.1785236921885966e6
1.191366401918702e6
1.1915722773926074e6
1.1939811362536824e6
1.195897384979393e6
1.1963280044591757e6
1.1977677642486193e6
1.1961264721371608e6
1.1990121146454355e6
1.1921169595205726e6
1.2047586067216317e6
100000.00000120577
100000.0000010035
99999.99999390455
100000.00001944823
99999.99995090527
100000.00010976256
99999.99977173719
100000.00044555795
99999.99917341102
100000.00145616467
99999.99756863147
100000.00380585279
99999.99454206816
100000.00676680605
99999.99407636044
99999.99851771983
100000.0252354622
99999.91427932994
100000.22357050542
99999.48335711562
100001.10984964843
99997.73673207228
100004.43353836874
99991.6124226023
100015.40672000327
99972.4646848619
100048.38272032146
99915.20912303317
100154.37166984587
99695.54832460983
100662.48760201022
98557.7820666239
102386.39976686783
102911.80668133829
475413.12853571185
1.0240177446834398e6
1.199189301400924e6
1.1706328149217945e6
1.1799747497054744e6
1.1807986879590016e6
1.181777579601882e6
1.1830392364975258e6
1.1827184503308658e6
1.1836181819581778e6
1.1816483449779723e6
1.1846126172443605e6
1.177406259491622e6
1.1916326369850913e6
100000.00000192081
99999.99999858913
99999.99999917817
100000.00000798618
99999.99997357816
100000.00006723014
99999.99984680158
100000.00032165967
99999.99936130618
100000.00120653202
99999.99781979287
100000.0037652455
99999.99381066483
100000.00957792974
99999.98637410064
100000.01681451763
99999.98531690816
99999.99623227178
100000.0634103332
99999.78280030123
100000.5739209909
99998.65129552777
100002.95979535056
99993.80898446994
100012.51484910412
99975.41457742172
100047.49732066326
99908.90390068502
100179.33510051973
99623.77345854521
100891.52579781745
97645.33279983353
106900.60913259706
82759.25846496216
364435.94549787295
924231.8530081345
1.1829296968343635e6
1.163790761406298e6
1.1668282419226866e6
1.16820928496493e6
1.1672035559836782e6
1.16678734885826e6
1.1642549479472486e6
1.1624933901203927e6
1.1570325738845337e6
1.156558222020138e6
1.1439870071804787e6
1.1584670748886215e6
100000.00000216316
99999.9999972145
100000.00000265297
99999.99999966194
99999.99999145186
100000.00003118215
99999.99991556295
100000.00019747435
99999.99957349051
100000.0008676723
99999.99831382652
100000.00314798471
99999.99433571531
100000.00982272136
99999.98362840405
100000.02603993287
99999.96104837877
100000.05307526732
99999.9394560695
100000.03946826418
100000.06389573799
99999.62839636636
100001.15111371601
99997.03858934873
100006.96551944196
99984.53112709994
100033.20457809365
99930.48229142616
100146.0925584927
99683.86015028077
100756.57488038485
97948.17222173212
106708.92042707524
79266.6824774987
259732.3865897364
799913.0837040998
1.1506807872530215e6
1.1581993064767066e6
1.1527230158763472e6
1.1544482411639537e6
1.1516889906631357e6
1.1497191949206728e6
1.1457272199942921e6
1.1425624946954937e6
1.1362929226117847e6
1.1351136234134138e6
1.1226919689024212e6
1.1370899005919087e6
100000.00000202336
99999.99999677896
100000.00000435347
99999.99999474383
100000.00000337894
100000.00000489972
99999.9999699115
100000.0000911608
99999.99977203587
100000.0005139953
99999.99891337797
100000.0021908124
99999.99574449322
100000.00801020513
99999.9853401318
100000.02613089811
99999.95464041665
100000.07654929029
99999.87497548154
100000.19593514872
99999.71047585823
100000.38853311379
99999.57426289389
100000.21135224926
100000.73997413783
99996.45290529469
100010.77113549496
99972.26346752433
100066.48967503567
99846.80591628657
100368.25064025726
99017.09407471644
103324.51351399724
87937.99238172629
170815.48620184645
653955.2774055288
1.0939124037815444e6
1.152042706294372e6
1.138026481767819e6
1.1386860052021889e6
1.1336420649625848e6
1.128535043866941e6
1.1204479969780564e6
1.1115830872572095e6
1.096698049803959e6
1.0848320855107117e6
1.0534815657619252e6
1.060872571557272e6
100000.00000163466
99999.99999705091
100000.00000458451
99999.99999290069
100000.00000938335
99999.99998951802
100000.00000538617
100000.00001533197
99999.99992596128
100000.00021517058
99999.99947152146
100000.00118660547
99999.9974825194
100000.00513059096
99999.9898554486
100000.01958431747
99999.96292484747
100000.06904569126
99999.87326644722
100000.22966680602
99999.5891248414
100000.726068279
99998.73627831481
100002.16431500908
99996.380289229
100005.89387238787
99990.80138733367
100013.80189417269
99980.21508879575
100030.15460152748
99944.2511886807
100138.4608493679
99713.14794122543
99908.59966316307
108696.42034223453
495250.2888817683
1.0033795938022172e6
1.1406708068798215e6
1.1238656788917305e6
1.1216181581565212e6
1.1147251601275057e6
1.10670370574823e6
1.0956795079835232e6
1.083397130949337e6
1.0661425168133613e6
1.0498265875660877e6
1.0200965260507218e6
986475.0823026074
100000.00000114455
99999.99999772849
100000.00000384465
99999.99999331696
100000.00001059035
99999.99998382009
100000.00002225103
99999.9999736275
100000.00002029007
100000.00001460956
99999.99987965224
100000.00038526994
99999.99900975474
100000.0022974616
99999.99497996614
100000.0105484298
99999.97842369122
100000.04329255184
99999.9142901204
100000.16806035418
99999.67247695677
100000.6357391809
99998.7687546164
100002.382970202
99995.39245971203
100008.92383390311
99982.731426314
100033.67579371449
99933.73914875329
100135.57734802687
99704.86690198921
100724.94969011839
97986.93078218093
106391.3181510987
81031.10680400803
339148.39377968543
872798.5032975331
1.1155330985751285e6
1.1108185636429936e6
1.103117650664377e6
1.0939003618146353e6
1.0815707445469971e6
1.0645939275437659e6
1.0427297693595773e6
1.0090763587690957e6
962153.0566889744
870991.2645599509
711991.1855874402
100000.00000067802
99999.99999852157
100000.00000267621
99999.99999496479
100000.00000878742
99999.9999848745
100000.00002482005
99999.99996075714
100000.00005866533
99999.99991860572
100000.00009921483
99999.99991072502
99999.99999568143
100000.0003077914
99999.99890621536
100000.00293863541
99999.99296859128
100000.01583377707
99999.96565209723
100000.07292096443
99999.84737667785
100000.3173910397
99999.34223672445
100001.36427026182
99997.1651893821
100005.91504815893
99987.61721570203
100026.07164166059
99944.87315390143
100118.42204857223
99739.47188036586
100614.15655799622
98396.81925127741
105053.65461712227
83275.73191902705
205335.01462452745
703141.2581985603
1.063630926372979e6
1.0982581961613966e6
1.084350110107561e6
1.0724784877328954e6
1.056070703616562e6
1.0338182302402701e6
1.0047230328421192e6
961681.3472346542
901851.0400397598
800217.4581624287
637501.4991093257
100000.00000031303
99999.99999921703
100000.00000152206
99999.99999691156
100000.00000580229
99999.9999892216
100000.0000193342
99999.99996603621
100000.00005824857
99999.99990226584
100000.00016040482
99999.99974279411
100000.0004022022
99999.99938908925
100000.00089435824
99999.99875356226
100000.00160223297
99999.9982277399
100000.00122641619
100000.00126227409
99999.99137633949
100000.02763287938
99999.92647724679
100000.18334742787
99999.56251954283
100001.04040340256
99997.57549572772
100005.69188701484
99986.98531449141
100029.667436608
99935.5314267164
100137.8764731939
99717.14639626983
100699.83678462483
97709.97428874687
114949.83945746519
508087.6035686787
968459.3642232846
1.0810169873003548e6
1.066332410464048e6
1.051084888574181e6
1.0311542062780429e6
1.0044389481828086e6
969975.0378378172
921038.2405182803
856066.3182024488
754853.430173419
615804.8779245585
100000.00000007574
99999.99999971183
100000.00000063842
99999.99999854315
100000.00000298464
99999.999994027
100000.00001150105
99999.99997834877
100000.0000399385
99999.99992747584
100000.00013011176
99999.99976868092
100000.00040904248
99999.99927855127
100000.00127495245
99999.997737049
100000.00405710377
99999.99264130683
100000.01357843373
99999.97449706664
100000.04889344065
99999.90430747897
100000.19083020462
99999.6121900411
100000.79918779465
99998.32995205854
100003.52777994225
99992.48927331375
100016.25900974008
99964.30787063368
100082.22387039075
99799.79242619366
100547.26756316902
98334.58760739272
105786.07189837557
80489.18541395945
316813.2164942516
817537.3954106532
1.0471612175204108e6
1.0497392856407163e6
1.03060801505036e6
1.0077899858822786e6
977668.3050965428
939706.716287829
887766.090571333
822240.9072922644
726384.6874546256
609425.4269959645
99999.99999995124
99999.9999999972
100000.00000009692
99999.99999961464
100000.00000099419
99999.99999769984
100000.00000491967
99999.9999899622
100000.00001984075
99999.99996173609
100000.00007259611
99999.99986395115
100000.00025298787
99999.99953122152
100000.00086760368
99999.99838813995
100000.0030087799
99999.99432855591
100000.01080269234
99999.979144218
100000.04089567973
99999.91864072898
100000.16503279623
99999.66073995424
100000.71184378586
99998.48906902502
100003.2693151701
99992.85894858833
100015.8471393896
99964.53428133954
100080.86178984113
99812.36990815934
100456.56341794178
98807.1088476659
103634.27224412859
87884.21841308093
167152.93137974254
613924.8297515572
975926.9471449025
1.0319869452928844e6
1.011768909243012e6
986488.8591271762
954000.9872661077
914010.8191849609
861176.4838105716
797266.399753675
708940.3231217377
608654.6092747326
99999.99999990608
100000.00000012123
99999.99999984092
100000.00000016256
99999.99999990652
99999.99999983268
100000.00000085482
99999.99999758654
100000.00000574127
99999.999987527
100000.00002575356
99999.99994870038
100000.0000998882
99999.99980907253
100000.00036133127
99999.99932318693
100000.00126439084
99999.99764899597
100000.0043750213
99999.99185115512
100000.01519161476
99999.9714909892
100000.05347196561
99999.89852415527
100000.19269932182
99999.62978634569
100000.71794771987
99998.60074729055
100002.78990735777
99994.59557072322
100010.55278794898
99982.67707209942
100019.4087797589
100048.50032989495
99553.51291008353
102500.83312934221
90585.91356497751
389221.9754594486
842962.0171503746
1.0026502880277827e6
994716.6321386349
967594.9747132281
933595.7869317775
892636.144214956
840299.0262078354
778915.9941198403
698487.097134107
610592.5278022094
99999.99999990354
100000.00000015013