# vtk DataFile Version 2.0
JuliaCFD
ASCII
DATASET UNSTRUCTURED_GRID

POINTS 32898 float
0.0 0.0 -0.05
0.0125 0.0 -0.05
0.025 0.0 -0.05
0.0375 0.0 -0.05
0.05 0.0 -0.05
0.0625 0.0 -0.05
0.075 0.0 -0.05
0.0875 0.0 -0.05
0.1 0.0 -0.05
0.1125 0.0 -0.05
0.125 0.0 -0.05
0.1375 0.0 -0.05
0.15 0.0 -0.05
0.1625 0.0 -0.05
0.175 0.0 -0.05
0.1875 0.0 -0.05
0.2 0.0 -0.05
0.2125 0.0 -0.05
0.225 0.0 -0.05
0.2375 0.0 -0.05
0.25 0.0 -0.05
0.2625 0.0 -0.05
0.275 0.0 -0.05
0.2875 0.0 -0.05
0.3 0.0 -0.05
0.3125 0.0 -0.05
0.325 0.0 -0.05
0.3375 0.0 -0.05
0.35 0.0 -0.05
0.3625 0.0 -0.05
0.375 0.0 -0.05
0.3875 0.0 -0.05
0.4 0.0 -0.05
0.4125 0.0 -0.05
0.425 0.0 -0.05
0.4375 0.0 -0.05
0.45 0.0 -0.05
0.4625 0.0 -0.05
0.475 0.0 -0.05
0.4875 0.0 -0.05
0.5 0.0 -0.05
0.5125 0.0 -0.05
0.525 0.0 -0.05
0.5375 0.0 -0.05
0.55 0.0 -0.05
0.5625 0.0 -0.05
0.575 0.0 -0.05
0.5875 0.0 -0.05
0.6 0.0 -0.05
0.0 0.0125 -0.05
0.0125 0.0125 -0.05
0.025 0.0125 -0.05
0.0375 0.0125 -0.05
0.05 0.0125 -0.05
0.0625 0.0125 -0.05
0.075 0.0125 -0.05
0.0875 0.0125 -0.05
0.1 0.0125 -0.05
0.1125 0.0125 -0.05
0.125 0.0125 -0.05
0.1375 0.0125 -0.05
0.15 0.0125 -0.05
0.1625 0.0125 -0.05
0.175 0.0125 -0.05
0.1875 0.0125 -0.05
0.2 0.0125 -0.05
0.2125 0.0125 -0.05
0.225 0.0125 -0.05
0.2375 0.0125 -0.05
0.25 0.0125 -0.05
0.2625 0.0125 -0.05
0.275 0.0125 -0.05
0.2875 0.0125 -0.05
0.3 0.0125 -0.05
0.3125 0.0125 -0.05
0.325 0.0125 -0.05
0.3375 0.0125 -0.05
0.35 0.0125 -0.05
0.3625 0.0125 -0.05
0.375 0.0125 -0.05
0.3875 0.0125 -0.05
0.4 0.0125 -0.05
0.4125 0.0125 -0.05
0.425 0.0125 -0.05
0.4375 0.0125 -0.05
0.45 0.0125 -0.05
0.4625 0.0125 -0.05
0.475 0.0125 -0.05
0.4875 0.0125 -0.05
0.5 0.0125 -0.05
0.5125 0.0125 -0.05
0.525 0.0125 -0.05
0.5375 0.0125 -0.05
0.55 0.0125 -0.05
0.5625 0.0125 -0.05
0.575 0.0125 -0.05
0.5875 0.0125 -0.05
0.6 0.0125 -0.05
0.0 0.025 -0.05
0.0125 0.025 -0.05
0.025 0.025 -0.05
0.0375 0.025 -0.05
0.05 0.025 -0.05
0.0625 0.025 -0.05
0.075 0.025 -0.05
0.0875 0.025 -0.05
0.1 0.025 -0.05
0.1125 0.025 -0.05
0.125 0.025 -0.05
0.1375 0.025 -0.05
0.15 0.025 -0.05
0.1625 0.025 -0.05
0.175 0.025 -0.05
0.1875 0.025 -0.05
0.2 0.025 -0.05
0.2125 0.025 -0.05
0.225 0.025 -0.05
0.2375 0.025 -0.05
0.25 0.025 -0.05
0.2625 0.025 -0.05
0.275 0.025 -0.05
0.2875 0.025 -0.05
0.3 0.025 -0.05
0.3125 0.025 -0.05
0.325 0.025 -0.05
0.3375 0.025 -0.05
0.35 0.025 -0.05
0.3625 0.025 -0.05
0.375 0.025 -0.05
0.3875 0.025 -0.05
0.4 0.025 -0.05
0.4125 0.025 -0.05
0.425 0.025 -0.05
0.4375 0.025 -0.05
0.45 0.025 -0.05
0.4625 0.025 -0.05
0.475 0.025 -0.05
0.4875 0.025 -0.05
0.5 0.025 -0.05
0.5125 0.025 -0.05
0.525 0.025 -0.05
0.5375 0.025 -0.05
0.55 0.025 -0.05
0.5625 0.025 -0.05
0.575 0.025 -0.05
0.5875 0.025 -0.05
0.6 0.025 -0.05
0.0 0.0375 -0.05
0.0125 0.0375 -0.05
0.025 0.0375 -0.05
0.0375 0.0375 -0.05
0.05 0.0375 -0.05
0.0625 0.0375 -0.05
0.075 0.0375 -0.05
0.0875 0.0375 -0.05
0.1 0.0375 -0.05
0.1125 0.0375 -0.05
0.125 0.0375 -0.05
0.1375 0.0375 -0.05
0.15 0.0375 -0.05
0.1625 0.0375 -0.05
0.175 0.0375 -0.05
0.1875 0.0375 -0.05
0.2 0.0375 -0.05
0.2125 0.0375 -0.05
0.225 0.0375 -0.05
0.2375 0.0375 -0.05
0.25 0.0375 -0.05
0.2625 0.0375 -0.05
0.275 0.0375 -0.05
0.2875 0.0375 -0.05
0.3 0.0375 -0.05
0.3125 0.0375 -0.05
0.325 0.0375 -0.05
0.3375 0.0375 -0.05
0.35 0.0375 -0.05
0.3625 0.0375 -0.05
0.375 0.0375 -0.05
0.3875 0.0375 -0.05
0.4 0.0375 -0.05
0.4125 0.0375 -0.05
0.425 0.0375 -0.05
0.4375 0.0375 -0.05
0.45 0.0375 -0.05
0.4625 0.0375 -0.05
0.475 0.0375 -0.05
0.4875 0.0375 -0.05
0.5 0.0375 -0.05
0.5125 0.0375 -0.05
0.525 0.0375 -0.05
0.5375 0.0375 -0.05
0.55 0.0375 -0.05
0.5625 0.0375 -0.05
0.575 0.0375 -0.05
0.5875 0.0375 -0.05
0.6 0.0375 -0.05
0.0 0.05 -0.05
0.0125 0.05 -0.05
0.025 0.05 -0.05
0.0375 0.05 -0.05
0.05 0.05 -0.05
0.0625 0.05 -0.05
0.075 0.05 -0.05
0.0875 0.05 -0.05
0.1 0.05 -0.05
0.1125 0.05 -0.05
0.125 0.05 -0.05
0.1375 0.05 -0.05
0.15 0.05 -0.05
0.1625 0.05 -0.05
0.175 0.05 -0.05
0.1875 0.05 -0.05
0.2 0.05 -0.05
0.2125 0.05 -0.05
0.225 0.05 -0.05
0.2375 0.05 -0.05
0.25 0.05 -0.05
0.2625 0.05 -0.05
0.275 0.05 -0.05
0.2875 0.05 -0.05
0.3 0.05 -0.05
0.3125 0.05 -0.05
0.325 0.05 -0.05
0.3375 0.05 -0.05
0.35 0.05 -0.05
0.3625 0.05 -0.05
0.375 0.05 -0.05
0.3875 0.05 -0.05
0.4 0.05 -0.05
0.4125 0.05 -0.05
0.425 0.05 -0.05
0.4375 0.05 -0.05
0.45 0.05 -0.05
0.4625 0.05 -0.05
0.475 0.05 -0.05
0.4875 0.05 -0.05
0.5 0.05 -0.05
0.5125 0.05 -0.05
0.525 0.05 -0.05
0.5375 0.05 -0.05
0.55 0.05 -0.05
0.5625 0.05 -0.05
0.575 0.05 -0.05
0.5875 0.05 -0.05
0.6 0.05 -0.05
0.0 0.0625 -0.05
0.0125 0.0625 -0.05
0.025 0.0625 -0.05
0.0375 0.0625 -0.05
0.05 0.0625 -0.05
0.0625 0.0625 -0.05
0.075 0.0625 -0.05
0.0875 0.0625 -0.05
0.1 0.0625 -0.05
0.1125 0.0625 -0.05
0.125 0.0625 -0.05
0.1375 0.0625 -0.05
0.15 0.0625 -0.05
0.1625 0.0625 -0.05
0.175 0.0625 -0.05
0.1875 0.0625 -0.05
0.2 0.0625 -0.05
0.2125 0.0625 -0.05
0.225 0.0625 -0.05
0.2375 0.0625 -0.05
0.25 0.0625 -0.05
0.2625 0.0625 -0.05
0.275 0.0625 -0.05
0.2875 0.0625 -0.05
0.3 0.0625 -0.05
0.3125 0.0625 -0.05
0.325 0.0625 -0.05
0.3375 0.0625 -0.05
0.35 0.0625 -0.05
0.3625 0.0625 -0.05
0.375 0.0625 -0.05
0.3875 0.0625 -0.05
0.4 0.0625 -0.05
0.4125 0.0625 -0.05
0.425 0.0625 -0.05
0.4375 0.0625 -0.05
0.45 0.0625 -0.05
0.4625 0.0625 -0.05
0.475 0.0625 -0.05
0.4875 0.0625 -0.05
0.5 0.0625 -0.05
0.5125 0.0625 -0.05
0.525 0.0625 -0.05
0.5375 0.0625 -0.05
0.55 0.0625 -0.05
0.5625 0.0625 -0.05
0.575 0.0625 -0.05
0.5875 0.0625 -0.05
0.6 0.0625 -0.05
0.0 0.075 -0.05
0.0125 0.075 -0.05
0.025 0.075 -0.05
0.0375 0.075 -0.05
0.05 0.075 -0.05
0.0625 0.075 -0.05
0.075 0.075 -0.05
0.0875 0.075 -0.05
0.1 0.075 -0.05
0.1125 0.075 -0.05
0.125 0.075 -0.05
0.1375 0.075 -0.05
0.15 0.075 -0.05
0.1625 0.075 -0.05
0.175 0.075 -0.05
0.1875 0.075 -0.05
0.2 0.075 -0.05
0.2125 0.075 -0.05
0.225 0.075 -0.05
0.2375 0.075 -0.05
0.25 0.075 -0.05
0.2625 0.075 -0.05
0.275 0.075 -0.05
0.2875 0.075 -0.05
0.3 0.075 -0.05
0.3125 0.075 -0.05
0.325 0.075 -0.05
0.3375 0.075 -0.05
0.35 0.075 -0.05
0.3625 0.075 -0.05
0.375 0.075 -0.05
0.3875 0.075 -0.05
0.4 0.075 -0.05
0.4125 0.075 -0.05
0.425 0.075 -0.05
0.4375 0.075 -0.05
0.45 0.075 -0.05
0.4625 0.075 -0.05
0.475 0.075 -0.05
0.4875 0.075 -0.05
0.5 0.075 -0.05
0.5125 0.075 -0.05
0.525 0.075 -0.05
0.5375 0.075 -0.05
0.55 0.075 -0.05
0.5625 0.075 -0.05
0.575 0.075 -0.05
0.5875 0.075 -0.05
0.6 0.075 -0.05
0.0 0.0875 -0.05
0.0125 0.0875 -0.05
0.025 0.0875 -0.05
0.0375 0.0875 -0.05
0.05 0.0875 -0.05
0.0625 0.0875 -0.05
0.075 0.0875 -0.05
0.0875 0.0875 -0.05
0.1 0.0875 -0.05
0.1125 0.0875 -0.05
0.125 0.0875 -0.05
0.1375 0.0875 -0.05
0.15 0.0875 -0.05
0.1625 0.0875 -0.05
0.175 0.0875 -0.05
0.1875 0.0875 -0.05
0.2 0.0875 -0.05
0.2125 0.0875 -0.05
0.225 0.0875 -0.05
0.2375 0.0875 -0.05
0.25 0.0875 -0.05
0.2625 0.0875 -0.05
0.275 0.0875 -0.05
0.2875 0.0875 -0.05
0.3 0.0875 -0.05
0.3125 0.0875 -0.05
0.325 0.0875 -0.05
0.3375 0.0875 -0.05
0.35 0.0875 -0.05
0.3625 0.0875 -0.05
0.375 0.0875 -0.05
0.3875 0.0875 -0.05
0.4 0.0875 -0.05
0.4125 0.0875 -0.05
0.425 0.0875 -0.05
0.4375 0.0875 -0.05
0.45 0.0875 -0.05
0.4625 0.0875 -0.05
0.475 0.0875 -0.05
0.4875 0.0875 -0.05
0.5 0.0875 -0.05
0.5125 0.0875 -0.05
0.525 0.0875 -0.05
0.5375 0.0875 -0.05
0.55 0.0875 -0.05
0.5625 0.0875 -0.05
0.575 0.0875 -0.05
0.5875 0.0875 -0.05
0.6 0.0875 -0.05
0.0 0.1 -0.05
0.0125 0.1 -0.05
0.025 0.1 -0.05
0.0375 0.1 -0.05
0.05 0.1 -0.05
0.0625 0.1 -0.05
0.075 0.1 -0.05
0.0875 0.1 -0.05
0.1 0.1 -0.05
0.1125 0.1 -0.05
0.125 0.1 -0.05
0.1375 0.1 -0.05
0.15 0.1 -0.05
0.1625 0.1 -0.05
0.175 0.1 -0.05
0.1875 0.1 -0.05
0.2 0.1 -0.05
0.2125 0.1 -0.05
0.225 0.1 -0.05
0.2375 0.1 -0.05
0.25 0.1 -0.05
0.2625 0.1 -0.05
0.275 0.1 -0.05
0.2875 0.1 -0.05
0.3 0.1 -0.05
0.3125 0.1 -0.05
0.325 0.1 -0.05
0.3375 0.1 -0.05
0.35 0.1 -0.05
0.3625 0.1 -0.05
0.375 0.1 -0.05
0.3875 0.1 -0.05
0.4 0.1 -0.05
0.4125 0.1 -0.05
0.425 0.1 -0.05
0.4375 0.1 -0.05
0.45 0.1 -0.05
0.4625 0.1 -0.05
0.475 0.1 -0.05
0.4875 0.1 -0.05
0.5 0.1 -0.05
0.5125 0.1 -0.05
0.525 0.1 -0.05
0.5375 0.1 -0.05
0.55 0.1 -0.05
0.5625 0.1 -0.05
0.575 0.1 -0.05
0.5875 0.1 -0.05
0.6 0.1 -0.05
0.0 0.1125 -0.05
0.0125 0.1125 -0.05
0.025 0.1125 -0.05
0.0375 0.1125 -0.05
0.05 0.1125 -0.05
0.0625 0.1125 -0.05
0.075 0.1125 -0.05
0.0875 0.1125 -0.05
0.1 0.1125 -0.05
0.1125 0.1125 -0.05
0.125 0.1125 -0.05
0.1375 0.1125 -0.05
0.15 0.1125 -0.05
0.1625 0.1125 -0.05
0.175 0.1125 -0.05
0.1875 0.1125 -0.05
0.2 0.1125 -0.05
0.2125 0.1125 -0.05
0.225 0.1125 -0.05
0.2375 0.1125 -0.05
0.25 0.1125 -0.05
0.2625 0.1125 -0.05
0.275 0.1125 -0.05
0.2875 0.1125 -0.05
0.3 0.1125 -0.05
0.3125 0.1125 -0.05
0.325 0.1125 -0.05
0.3375 0.1125 -0.05
0.35 0.1125 -0.05
0.3625 0.1125 -0.05
0.375 0.1125 -0.05
0.3875 0.1125 -0.05
0.4 0.1125 -0.05
0.4125 0.1125 -0.05
0.425 0.1125 -0.05
0.4375 0.1125 -0.05
0.45 0.1125 -0.05
0.4625 0.1125 -0.05
0.475 0.1125 -0.05
0.4875 0.1125 -0.05
0.5 0.1125 -0.05
0.5125 0.1125 -0.05
0.525 0.1125 -0.05
0.5375 0.1125 -0.05
0.55 0.1125 -0.05
0.5625 0.1125 -0.05
0.575 0.1125 -0.05
0.5875 0.1125 -0.05
0.6 0.1125 -0.05
0.0 0.125 -0.05
0.0125 0.125 -0.05
0.025 0.125 -0.05
0.0375 0.125 -0.05
0.05 0.125 -0.05
0.0625 0.125 -0.05
0.075 0.125 -0.05
0.0875 0.125 -0.05
0.1 0.125 -0.05
0.1125 0.125 -0.05
0.125 0.125 -0.05
0.1375 0.125 -0.05
0.15 0.125 -0.05
0.1625 0.125 -0.05
0.175 0.125 -0.05
0.1875 0.125 -0.05
0.2 0.125 -0.05
0.2125 0.125 -0.05
0.225 0.125 -0.05
0.2375 0.125 -0.05
0.25 0.125 -0.05
0.2625 0.125 -0.05
0.275 0.125 -0.05
0.2875 0.125 -0.05
0.3 0.125 -0.05
0.3125 0.125 -0.05
0.325 0.125 -0.05
0.3375 0.125 -0.05
0.35 0.125 -0.05
0.3625 0.125 -0.05
0.375 0.125 -0.05
0.3875 0.125 -0.05
0.4 0.125 -0.05
0.4125 0.125 -0.05
0.425 0.125 -0.05
0.4375 0.125 -0.05
0.45 0.125 -0.05
0.4625 0.125 -0.05
0.475 0.125 -0.05
0.4875 0.125 -0.05
0.5 0.125 -0.05
0.5125 0.125 -0.05
0.525 0.125 -0.05
0.5375 0.125 -0.05
0.55 0.125 -0.05
0.5625 0.125 -0.05
0.575 0.125 -0.05
0.5875 0.125 -0.05
0.6 0.125 -0.05
0.0 0.1375 -0.05
0.0125 0.1375 -0.05
0.025 0.1375 -0.05
0.0375 0.1375 -0.05
0.05 0.1375 -0.05
0.0625 0.1375 -0.05
0.075 0.1375 -0.05
0.0875 0.1375 -0.05
[...]
CELL_DATA 16128
SCALARS P float 1
LOOKUP_TABLE default
99999.9999999911
100000.00000002209
99999.99999994249
100000.00000014465
99999.9999996343
100000.00000091289
99999.9999977385
100000.00000553203
99999.99998666199
100000.00003154243
99999.99992730016
100000.00016154534
99999.9996605457
100000.00064758763
99999.99899838855
100000.00063272477
100000.00403138004
99999.9732276339
100000.11615384724
99999.56782659004
100001.41502110053
99997.56124793444
99947.65156297914
101714.98319999925
161270.51415525834
380508.2953876374
702058.7643441207
939953.6973652899
1.0295924832383186e6
1.0537578443449298e6
1.0666116580671929e6
1.0781454866472424e6
1.0892068990889813e6
1.0998088947376695e6
1.1099330444804442e6
1.1195659401340429e6
1.128693395699202e6
1.137297618833912e6
1.145353036122024e6
1.1528327861281505e6
1.159688030511144e6
1.1659097320634946e6
1.171350035553914e6
1.1762545646112666e6
1.1796959610565135e6
1.1842244050278275e6
1.182070942324972e6
1.196086987001843e6
99999.99999999085
100000.00000002312
99999.99999993992
100000.00000015285
99999.99999961107
100000.00000098006
99999.99999754557
100000.00000608564
99999.99998507988
100000.00003604936
99999.99991451266
100000.00019766531
99999.99955905291
100000.00093102492
99999.99821258032
100000.0027925768
99999.99815484525
99999.98903154396
100000.07419217336
99999.67773631457
100001.13464441025
99998.15072533104
99949.77993886096
101618.45337871078
160277.95416912774
379047.1100727114
702850.8820291859
944727.6379798151
1.0370354070008267e6
1.0623322301128427e6
1.0757306550317989e6
1.0875915891426022e6
1.09889020561576e6
1.1096983256223716e6
1.1200248595397025e6
1.1298674944224965e6
1.139214789421842e6
1.148047301620401e6
1.156335258003038e6
1.1640457398823414e6
1.1711224347920746e6
1.177547081894951e6
1.1831621646547737e6
1.1882011461232852e6
1.1917272798593307e6
1.1962899859603015e6
1.1940580359208777e6
1.208278484531157e6
99999.99999999002
100000.00000002523
99999.99999993364
100000.00000017101
99999.99999955867
100000.0000011322
99999.99999710615
100000.00000735147
99999.99998144075
100000.00004648983
99999.99988462034
100000.00028308276
99999.99931542028
100000.00162475053
99999.99624021497
100000.00839334224
99999.98226517519
100000.0340896105
99999.94643678845
100000.03978967034
100000.11826123766
100000.74894076632
99950.13386593651
101414.27167080672
157673.66928759942
372724.74895399425
695318.9912886019
939177.6196307184
1.0332874968373285e6
1.0589470293215571e6
1.072249330839383e6
1.083954401078717e6
1.0950858272952812e6
1.105716374358529e6
1.1158538112220222e6
1.1254961748965443e6
1.134633542108295e6
1.143248736693726e6
1.1513149354901698e6
1.1588025569345013e6
1.1656599585380445e6
1.1718725875790576e6
1.1772927090611623e6
1.182150743216643e6
1.185542771183332e6
1.1899688038356132e6
1.1876703551304683e6
1.202084208145657e6
99999.99999998909
100000.000000028
99999.9999999254
100000.00000019505
99999.99999948838
100000.00000133654
99999.9999965137
100000.0000090668
99999.99997648684
100000.00006076996
99999.99984353359
100000.00040109814
99999.99897697929
100000.00259388484
99999.9934689249
100000.01630756953
99999.95969270098
100000.09838523553
99999.76358015632
100000.55844845723
99998.66496429006
100004.44615217346
99950.7547022548
101122.5049517776
153653.0541302242
362873.4248390015
684177.5036069525
932417.2585143854
1.0304354905156356e6
1.0572424219242658e6
1.0707343935289658e6
1.082467593783176e6
1.0935910643168816e6
1.104198756516684e6
1.1143073302376054e6
1.123920825886704e6
1.133033792284852e6
1.1416324900781636e6
1.1496928839403747e6
1.1571871872848056e6
1.1640655353834815e6
1.1703117369663308e6
1.1757812708333707e6
1.1806889459568453e6
1.1841538513653537e6
1.188609837759563e6
1.1863331117567949e6
1.2011223879456792e6
99999.99999998807
100000.00000003113
99999.99999991688
100000.0000002209
99999.99999941213
100000.0000015603
99999.99999586132
100000.00001096656
99999.99997096849
100000.00007676493
99999.99979726305
100000.00053470876
99999.99859182467
100000.00370235274
99999.99028378709
100000.025445793
99999.93351581231
100000.17324892078
99999.5498681721
100001.16680748085
99996.9535310043
100008.82749319525
99951.19647405215
100787.2194509014
148440.19915816412
349641.41646302846
668915.8699357738
922956.0747229579
1.026290560264931e6
1.054575451984688e6
1.0681783561710033e6
1.0798162239499288e6
1.0908142106518992e6
1.1012851350710758e6
1.1112498414824533e6
1.1207154469865265e6
1.129679375446795e6
1.1381305938691658e6
1.1460477769281412e6
1.1534053432676094e6
1.1601563544457762e6
1.166284399469535e6
1.1716517797128123e6
1.1764595949214485e6
1.1798614935367724e6
1.1842244918956207e6
1.1818791979003763e6
1.197080083000699e6
99999.9999999872
100000.00000003375
99999.99999990873
100000.00000024441
99999.99999934263
100000.00000176646
99999.99999525344
100000.00001275184
99999.99996573887
100000.00009204564
99999.99975271753
100000.00066428618
99999.99821564206
100000.00479246603
99999.98713025577
100000.03455357316
99999.90725275167
100000.248864659
99999.33250663686
100001.79010832892
99995.18543863374
100013.40987083237
99950.98590427007
100456.86266699196
142325.51303909862
333301.1406046165
649489.5816875402
910669.9706723213
1.021021754160611e6
1.0513774143000348e6
1.0651628994138618e6
1.0766894551151004e6
1.0875380956261815e6
1.0978485152590817e6
1.1076463885080419e6
1.1169424045173044e6
1.125737545084933e6
1.134024248742686e6
1.141784683526957e6
1.1489961558689966e6
1.1556152448238796e6
1.1616254070772547e6
1.1668959738221625e6
1.1716128279954079e6
1.1749647581032128e6
1.1792504698540717e6
1.1768362035145918e6
1.1925696910979594e6
99999.99999998677
100000.00000003538
99999.99999990335
100000.00000026128
99999.99999929211
100000.00000191883
99999.99999479536
100000.00001412217
99999.99996165969
100000.00010413943
99999.99971698782
100000.00076952252
99999.99790651951
100000.00569831065
99999.9844814674
100000.04228408689
99999.88472999795
100000.31438223032
99999.14220355173
100002.34163629265
99993.60318220714
100017.56953899957
99950.15986194187
100174.2302798676
135648.38200968484
314207.34545805235
625840.8046261597
895197.3747513223
1.0143709845907643e6
1.0475116404058319e6
1.061566381329002e6
1.0729475454485477e6
1.0835980901533721e6
1.0936963141121084e6
1.1032729435734928e6
1.1123418083060621e6
1.1209072423290948e6
1.128965171449604e6
1.1365014789127193e6
1.1434967858126673e6
1.1499118997982016e6
1.1557311531669085e6
1.1608325820139805e6
1.165388922457387e6
1.1686278746102345e6
1.172785669011662e6
1.1702496007018203e6
1.1866252822346583e6
99999.99999998666
100000.00000003567
99999.99999990183
100000.00000026732
99999.99999927134
100000.00000198738
99999.99999457422
100000.00001482328
99999.99995946963
100000.00011090234
99999.9996962904
100000.00083240244
99999.99771664552
100000.00626877038
99999.98277481765
100000.0473717017
99999.86960912494
100000.35920826394
99999.00961266109
100002.73269959202
99992.46192977023
100020.61533500125
99949.39670271926
99968.61866651222
128780.74346460664
292809.701092459
597965.1913923085
876150.5807845676
1.0060833606191373e6
1.0429198646841658e6
1.0573917390952648e6
1.0686083142043205e6
1.0790180637339961e6
1.088856424999509e6
1.0981603946871483e6
1.106946670248077e6
1.1152227512010778e6
1.1229880624623944e6
1.1302324389439547e6
1.1369403395861222e6
1.1430776570728142e6
1.1486309895319322e6
1.1534888922424472e6
1.1578139393119782e6
1.1608754665272587e6
1.1648554796036452e6
1.162139521860659e6
1.1793019332362695e6
99999.99999998727
100000.00000003487
99999.99999990467
100000.00000026065
99999.9999992868
100000.00000195335
99999.99999464527
100000.00001469138
99999.99995965339
100000.00011090406
99999.99969485014
100000.00084044032
99999.9976829152
100000.00639479472
99999.9823327253
100000.04886276377
99999.86471234896
100000.37498553547
99998.95950007324
100002.88987446549
99991.97895579696
100021.92540815411
99949.90426322793
99850.75510405128
122104.22729761693
269661.07065663923
565935.4914137924
853095.905885058
995826.9827388306
1.0375091485748074e6
1.0526207845512924e6
1.0636642258617496e6
1.0737885390703264e6
1.0833144001608635e6
1.0922873283081357e6
1.100726370518679e6
1.1086415266976226e6
1.1160351605687968e6
1.122900662112887e6
1.1292262040849822e6
1.134982947185523e6
1.1401606230786974e6
1.1446595520299934e6
1.1486355667478754e6
1.151402835957166e6
1.1551025109701413e6
1.1520965445142388e6
1.1702090297195932e6
99999.99999998827
100000.00000003209
99999.99999991195
100000.0000002412
99999.9999993393
100000.00000181323
99999.99999502036
100000.00001368782
99999.99996233633
100000.00010373654
99999.99971397927
100000.00078945125
99999.99781860954
100000.0060344157
99999.98328733754
100000.04634244235
99999.87133831652
100000.35765929811
99999.00449310175
100002.7739634172
99992.27584277354
100021.1206207048
99953.10136470759
99812.04481693507
115979.75902773692
245422.0143917891
529940.1372876948
825574.4768393971
983184.5416663685
1.0311563130271006e6
1.0472365810219895e6
1.0581164352871934e6
1.0679107780969301e6
1.0770679007984323e6
1.085645854584333e6
1.0936653287411425e6
1.101137638573793e6
1.1080668806301379e6
1.1144488967889245e6
1.1202747969149735e6
1.1255207416826996e6
1.1301805706175508e6
1.1341683692366316e6
1.1376391249092272e6
1.13995753543395e6
1.1432427936293813e6
1.1398070123694781e6
1.1590917962161752e6
99999.99999998965
100000.00000002813
99999.99999992324
100000.0000002103
99999.99999942385
100000.00000157981
99999.99999566341
100000.00001191255
99999.99996724399
100000.00009015316
99999.99975162215
100000.0006850091
99999.99810872928
100000.00522761379
99999.98553337298
100000.04008361034
99999.88879474008
100000.30893402315
99999.14058167169
100002.39369992583
99993.33733710978
100018.189549384
99959.98886592608
99829.05998230487
110710.80292130003
220855.39606027433
490325.94346423435
793133.3653720642
967635.9261390131
1.0236891323042503e6
1.0412155643816903e6
1.051969612448212e6
1.0613910847035404e6
1.070119610211717e6
1.0782326916158171e6
1.0857517434430881e6
1.0926873929700104e6
1.0990430652000809e6
1.104814261559955e6
1.1099918595933446e6
1.1145533026118581e6
1.1184925960439467e6
1.1217326529743087e6
1.1244251377769152e6
1.125982767192541e6
1.1285258442984247e6
1.1243022478775028e6
1.144936677818473e6
99999.99999999147
100000.00000002308
99999.99999993706
100000.00000017154
99999.99999953117
100000.00000128124
99999.99999649581
100000.0000095893
99999.99997373822
100000.00007197344
99999.99980259001
100000.00054190069
99999.99851115808
100000.00409425558
99999.98873002821
100000.0310540185
99999.91433788692
100000.2365735467
99999.34585129398
100001.81071543625
99994.99213219775
100013.57050664934
99970.50294582914
99872.25176990389
106504.8769698735
196806.2437656398
447640.9665801344
755374.1211716207
948546.8547264833
1.0148649715279546e6
1.0345214196982821e6
1.0452321404699497e6
1.054243120732918e6
1.062480880809864e6
1.0700542475116549e6
1.0769844872819139e6
1.083278709496275e6
1.0889361091734061e6
1.093947695728324e6
1.098299642748641e6
1.1019663895504032e6
1.1049395117634938e6
1.1071504221102921e6
1.108759301964022e6
1.1092383569283434e6
1.1107520661428412e6
1.1054583667483479e6
1.1278659270523414e6
99999.99999999347
100000.00000001762
99999.99999995195
100000.00000012954
99999.99999964831
100000.00000095366
99999.99999741162
100000.00000702302
99999.99998093864
100000.0000517389
99999.9998595419
100000.00038134886
99999.99896450402
100000.00281203396
99999.99236270292
100000.02074467206
99999.94364596326
100000.15310870834
99999.58396356476
100001.1303438484
99996.9361601049
100008.10533478834
99983.26775061934
99915.99087022676
103441.92824556558
174161.76341461187
402670.9047833655
712020.188724702
925167.2601738665
1.0043431810820794e6
1.0270947917827222e6
1.0379143439270272e6
1.0464885298828396e6
1.0541733009969615e6
1.0611289383137578e6
1.067376098458059e6
1.0729143118836656e6
1.0777327087030306e6
1.081809713978792e6
1.0851153569033484e6
1.0876042086538975e6
1.089240133175885e6
1.0899254391105538e6
1.0897665229110343e6
1.0882234432315936e6
1.0874519808540822e6
1.0794828367180317e6
1.1030924948435698e6
99999.99999999533
100000.00000001247
99999.99999996669
100000.0000000887
99999.99999976199
100000.00000063611
99999.99999829906
100000.00000453825
99999.99998790455
100000.00003218085
99999.9999145376
100000.00022646388
99999.9994014096
100000.00157754052
99999.99585682734
100000.01083719113
99999.97179035262
100000.07300495752
99999.81240342393
100000.4776682802
99998.8017586842
100002.84905665526
99995.9018602006
99945.93690965523
101460.98495037036
153786.59262080185
356460.35213206726
663003.1998949258
896647.4424039028
991651.92973776
1.0188379815276458e6
1.0300252909296901e6
1.0381573676958643e6
1.0452305689231856e6
1.0514905115055526e6
1.056958444588166e6
1.0616217254744063e6
1.0654526028167421e6
1.0684079668682974e6
1.0704306462719527e6
1.07144458539337e6
1.0713765243660186e6
1.0701010605030041e6
1.0677133235127113e6
1.0637388052839395e6
1.0604586987585728e6
1.0498648829821686e6
1.076313176037251e6
99999.99999999699
100000.00000000764
99999.99999997947
100000.00000005317
99999.99999986056
100000.00000036167
99999.99999906245
100000.000002412
99999.99999383223
100000.00001563459
99999.9999607788
100000.00009707194
99999.99976395049
100000.00056033717
99999.99871502416
100000.0027936778
99999.99446337421
100000.00898327112
99999.993513911
99999.96441249346
100000.25702254122
99998.77629906639
100005.82136755782
99960.56517895957
100375.53148314031
136430.59170993313
310307.93033919425
608563.9512767883
862082.4379429342
976151.9467151221
1.0095926104929547e6
1.0215670565124078e6
1.029287573920479e6
1.0356995065125504e6
1.0411898469756896e6
1.0457849602150866e6
1.0494546458170416e6
1.0521445263038455e6
1.0537741124111135e6
1.0542329182935958e6
1.0533644715069851e6
1.0509748872019418e6
1.0467419816319442e6
1.0404162361657562e6
1.0309727037557461e6
1.0198081200192851e6
997479.9009901516
1.0155107407858812e6
99999.99999999831
100000.0000000039
99999.99999998977
100000.0000000254
99999.99999993682
100000.00000015159
99999.99999964025
100000.00000082124
99999.99999821275
100000.00000356828
99999.99999402296
100000.0000054576
100000.0000164759
99999.99986413732
100000.00063476259
99999.99749917822
100000.00906764012
99999.96869244378
100000.10468757874
99999.65765534082
100001.10215488558
99996.48335084897
100011.22473062437
99966.70291814295
99920.90509548015
122614.69547523536
265723.0412890303
549357.0157879341
820595.9319547155
957003.1640702552
999108.0819413358
1.012525157755654e6
1.0199232181869436e6
1.0256407171235725e6
1.030297367553054e6
1.0339363079846199e6
1.0365061336680347e6
1.0379178562701439e6
1.0380412553028581e6
1.0366977222048512e6
1.0336391151231143e6
1.0285475365081334e6
1.0209582512152009e6
1.0104919778727179e6
996157.6308582355
979676.3563573239
951924.9154917287
975026.5622195572
99999.9999999991
100000.00000000127
99999.99999999658
100000.00000000623
99999.9999999882
100000.00000001343
100000.00000001333
99999.9999998181
100000.00000090423
99999.9999963654
100000.00001324099
99999.99995437056
100000.00015168109
99999.99950822449
100000.00156551493
99999.99508500552
100000.0152650036
99999.95299464985
100000.14374876514
99999.5628411142
100001.32348028693
99996.01114285318
100011.8003483789
99972.36172617621
99823.44716487003
112517.84832649052
224333.25274892114
486539.3234867662
771472.0124194775
933144.7335784435
986998.4691789779
1.0028528781790006e6
1.0101102320248722e6
1.0151272033152237e6
1.0189020107428998e6
1.0215183652170503e6
1.0229026188444273e6
1.022922522161145e6
1.021382217752192e6
1.0180043142996847e6
1.0123758593314602e6
1.0038861521916452e6
991505.9099673218
973655.8426262515
946643.8975879619
905564.6965823033
826880.5263592994
698326.7161476597
99999.99999999975
99999.99999999977
100000.00000000068
99999.9999999954
100000.00000001656
99999.99999993999
100000.00000020143
99999.99999934087
100000.00000210131
99999.99999341654
100000.00002033374
99999.99993788835
100000.00018799126
99999.99943533952
100000.00168505748
99999.99499957544
100000.014766053
99999.95658641182
100000.12713907626
99999.6290032884
100001.07880811917
99996.87934527933
100008.78572673598
99981.44836151008
99866.63053346028
105909.21344268363
187735.20371500094
421816.1950748066
714335.7327567232
903305.0515017444
972686.594475167
992446.5349719025
999888.6641472328
1.0042414272249104e6
1.0071096613850975e6
1.008662490103712e6
1.0088103558754706e6
1.0073749298788033e6
1.0040964952784773e6
998594.8990472036
990299.9559328746
978349.0029711375
961308.2143501046
936953.2326953887
900738.2086243571
846724.7969839588
755434.4739427188
618783.6776459657
100000.00000000003
99999.9999999989
100000.00000000262
99999.99999999112
100000.00000002686
99999.99999991694
100000.00000025041
99999.99999925045
100000.00000221959
99999.99999347133
100000.00001906579
99999.99994466323
100000.00015966014
99999.99954193544
100000.0013068823
99999.9962922596
100000.01045831147
99999.97068147497
100000.08164246009
99999.77434918332
100000.6181633189
99998.32895414172
100004.31594190106
99992.58052427428
99926.07611420115
102175.5896658893
157286.66382243202
357415.7142051553
649372.0462126693
866066.8613646051
955338.4790370101
981108.1191429838
989279.5438074397
993069.2691241435
995037.4490366298
995517.4283131291
994419.1512721634
991529.907801102
986534.2545207908
978975.5789026752
968178.425661938
953144.04133542
932290.7892658857
903295.033199102
861916.3964924417
803219.3486643423
714128.6629753012
593177.0512899619
100000.00000000029
99999.9999999988
100000.00000000292
99999.99999999086
100000.00000002586
99999.99999992437
100000.00000021621
99999.99999938338
100000.00000174317
99999.99999510171
100000.00001366028
99999.99996218833
100000.0001037855
99999.99971779106
100000.00075904411
99999.99798485708
100000.00526433029
99999.98652994436
100000.03351355632
99999.9199184684
100000.17945562114
99999.64497838884
100000.45161210865
100001.85357511281
99960.87477343288
100465.65919753119
133849.57890848492
295963.140745241
577553.4959778602
820018.7841314257
933800.5285673016
968492.2022283187
978264.5209362152
981690.8088098246
982805.6411513782
982236.7814799203
979926.171411733
975642.7037562345
969035.6283567429
959606.1655077542
946637.0834859343
929106.2900269305
905482.9410683735
873661.0383293448
830168.2131121946
771450.672447701
689511.1713966187
585949.866882299
100000.00000000022
99999.99999999907
100000.00000000244
99999.99999999255
100000.00000001944
99999.99999994558
100000.00000014855
99999.99999959551
100000.00000108671
99999.99999710938
100000.00000757966
99999.99998045564
100000.00004930692
99999.99987919457
100000.00028377694
99999.99937617178
100000.0012145752
99999.99825006847
99999.99979667399
100000.01630120652
99999.9059106421
100000.41351668551
99998.35829472254
100006.3980052005
99975.98470476306
99914.76745680002
117536.06628222091
240234.79191996335
500818.51083970245
764017.517142764
906563.8998017632
954034.7518071845
966755.5478456587
970167.7644955065
970528.6133414429
968968.1864810031
965516.8351968866
959945.4459265008
951891.7712013515
940849.1179151348
926112.668491089
906718.5305729407
881302.443762327
848107.6997328562
804502.4865249794
748121.0996459688
674386.0257510222
585689.6925672962
100000.00000000017
99999.99999999932
100000.00000000162
99999.9999999953
100000.00000001174
99999.99999996799
100000.00000008185
99999.99999979093
100000.00000051809
99999.99999875207
100000.00000287259
99999.99999383648
100000.0000115901
99999.99998452551
99999.99999268868
100000.00017081678
99999.99907723643
100000.00389216666
99999.98526683841
100000.0524437517
99999.82064197064
100000.59648328573
99998.05555554222
100006.17161274534
99985.24516495815
99856.05888754354
107581.34044299628
192791.513153953
422119.84125344607
697558.0538787062
871793.9622869239
936863.4931663707
954549.8579033735
958525.9500155477
958304.8683528252
955844.9203037379
951352.8988332674
944631.4959249637
935329.0349102393
922959.2800080591