# vtk DataFile Version 2.0
JuliaCFD
ASCII
DATASET UNSTRUCTURED_GRID

POINTS 32898 float
0.0 0.0 -0.05
0.0125 0.0 -0.05
0.025 0.0 -0.05
0.0375 0.0 -0.05
0.05 0.0 -0.05
0.0625 0.0 -0.05
0.075 0.0 -0.05
0.0875 0.0 -0.05
0.1 0.0 -0.05
0.1125 0.0 -0.05
0.125 0.0 -0.05
0.1375 0.0 -0.05
0.15 0.0 -0.05
0.1625 0.0 -0.05
0.175 0.0 -0.05
0.1875 0.0 -0.05
0.2 0.0 -0.05
0.2125 0.0 -0.05
0.225 0.0 -0.05
0.2375 0.0 -0.05
0.25 0.0 -0.05
0.2625 0.0 -0.05
0.275 0.0 -0.05
0.2875 0.0 -0.05
0.3 0.0 -0.05
0.3125 0.0 -0.05
0.325 0.0 -0.05
0.3375 0.0 -0.05
0.35 0.0 -0.05
0.3625 0.0 -0.05
0.375 0.0 -0.05
0.3875 0.0 -0.05
0.4 0.0 -0.05
0.4125 0.0 -0.05
0.425 0.0 -0.05
0.4375 0.0 -0.05
0.45 0.0 -0.05
0.4625 0.0 -0.05
0.475 0.0 -0.05
0.4875 0.0 -0.05
0.5 0.0 -0.05
0.5125 0.0 -0.05
0.525 0.0 -0.05
0.5375 0.0 -0.05
0.55 0.0 -0.05
0.5625 0.0 -0.05
0.575 0.0 -0.05
0.5875 0.0 -0.05
0.6 0.0 -0.05
0.0 0.0125 -0.05
0.0125 0.0125 -0.05
0.025 0.0125 -0.05
0.0375 0.0125 -0.05
0.05 0.0125 -0.05
0.0625 0.0125 -0.05
0.075 0.0125 -0.05
0.0875 0.0125 -0.05
0.1 0.0125 -0.05
0.1125 0.0125 -0.05
0.125 0.0125 -0.05
0.1375 0.0125 -0.05
0.15 0.0125 -0.05
0.1625 0.0125 -0.05
0.175 0.0125 -0.05
0.1875 0.0125 -0.05
0.2 0.0125 -0.05
0.2125 0.0125 -0.05
0.225 0.0125 -0.05
0.2375 0.0125 -0.05
0.25 0.0125 -0.05
0.2625 0.0125 -0.05
0.275 0.0125 -0.05
0.2875 0.0125 -0.05
0.3 0.0125 -0.05
0.3125 0.0125 -0.05
0.325 0.0125 -0.05
0.3375 0.0125 -0.05
0.35 0.0125 -0.05
0.3625 0.0125 -0.05
0.375 0.0125 -0.05
0.3875 0.0125 -0.05
0.4 0.0125 -0.05
0.4125 0.0125 -0.05
0.425 0.0125 -0.05
0.4375 0.0125 -0.05
0.45 0.0125 -0.05
0.4625 0.0125 -0.05
0.475 0.0125 -0.05
0.4875 0.0125 -0.05
0.5 0.0125 -0.05
0.5125 0.0125 -0.05
0.525 0.0125 -0.05
0.5375 0.0125 -0.05
0.55 0.0125 -0.05
0.5625 0.0125 -0.05
0.575 0.0125 -0.05
0.5875 0.0125 -0.05
0.6 0.0125 -0.05
0.0 0.025 -0.05
0.0125 0.025 -0.05
0.025 0.025 -0.05
0.0375 0.025 -0.05
0.05 0.025 -0.05
0.0625 0.025 -0.05
0.075 0.025 -0.05
0.0875 0.025 -0.05
0.1 0.025 -0.05
0.1125 0.025 -0.05
0.125 0.025 -0.05
0.1375 0.025 -0.05
0.15 0.025 -0.05
0.1625 0.025 -0.05
0.175 0.025 -0.05
0.1875 0.025 -0.05
0.2 0.025 -0.05
0.2125 0.025 -0.05
0.225 0.025 -0.05
0.2375 0.025 -0.05
0.25 0.025 -0.05
0.2625 0.025 -0.05
0.275 0.025 -0.05
0.2875 0.025 -0.05
0.3 0.025 -0.05
0.3125 0.025 -0.05
0.325 0.025 -0.05
0.3375 0.025 -0.05
0.35 0.025 -0.05
0.3625 0.025 -0.05
0.375 0.025 -0.05
0.3875 0.025 -0.05
0.4 0.025 -0.05
0.4125 0.025 -0.05
0.425 0.025 -0.05
0.4375 0.025 -0.05
0.45 0.025 -0.05
0.4625 0.025 -0.05
0.475 0.025 -0.05
0.4875 0.025 -0.05
0.5 0.025 -0.05
0.5125 0.025 -0.05
0.525 0.025 -0.05
0.5375 0.025 -0.05
0.55 0.025 -0.05
0.5625 0.025 -0.05
0.575 0.025 -0.05
0.5875 0.025 -0.05
0.6 0.025 -0.05
0.0 0.0375 -0.05
0.0125 0.0375 -0.05
0.025 0.0375 -0.05
0.0375 0.0375 -0.05
0.05 0.0375 -0.05
0.0625 0.0375 -0.05
0.075 0.0375 -0.05
0.0875 0.0375 -0.05
0.1 0.0375 -0.05
0.1125 0.0375 -0.05
0.125 0.0375 -0.05
0.1375 0.0375 -0.05
0.15 0.0375 -0.05
0.1625 0.0375 -0.05
0.175 0.0375 -0.05
0.1875 0.0375 -0.05
0.2 0.0375 -0.05
0.2125 0.0375 -0.05
0.225 0.0375 -0.05
0.2375 0.0375 -0.05
0.25 0.0375 -0.05
0.2625 0.0375 -0.05
0.275 0.0375 -0.05
0.2875 0.0375 -0.05
0.3 0.0375 -0.05
0.3125 0.0375 -0.05
0.325 0.0375 -0.05
0.3375 0.0375 -0.05
0.35 0.0375 -0.05
0.3625 0.0375 -0.05
0.375 0.0375 -0.05
0.3875 0.0375 -0.05
0.4 0.0375 -0.05
0.4125 0.0375 -0.05
0.425 0.0375 -0.05
0.4375 0.0375 -0.05
0.45 0.0375 -0.05
0.4625 0.0375 -0.05
0.475 0.0375 -0.05
0.4875 0.0375 -0.05
0.5 0.0375 -0.05
0.5125 0.0375 -0.05
0.525 0.0375 -0.05
0.5375 0.0375 -0.05
0.55 0.0375 -0.05
0.5625 0.0375 -0.05
0.575 0.0375 -0.05
0.5875 0.0375 -0.05
0.6 0.0375 -0.05
0.0 0.05 -0.05
0.0125 0.05 -0.05
0.025 0.05 -0.05
0.0375 0.05 -0.05
0.05 0.05 -0.05
0.0625 0.05 -0.05
0.075 0.05 -0.05
0.0875 0.05 -0.05
0.1 0.05 -0.05
0.1125 0.05 -0.05
0.125 0.05 -0.05
0.1375 0.05 -0.05
0.15 0.05 -0.05
0.1625 0.05 -0.05
0.175 0.05 -0.05
0.1875 0.05 -0.05
0.2 0.05 -0.05
0.2125 0.05 -0.05
0.225 0.05 -0.05
0.2375 0.05 -0.05
0.25 0.05 -0.05
0.2625 0.05 -0.05
0.275 0.05 -0.05
0.2875 0.05 -0.05
0.3 0.05 -0.05
0.3125 0.05 -0.05
0.325 0.05 -0.05
0.3375 0.05 -0.05
0.35 0.05 -0.05
0.3625 0.05 -0.05
0.375 0.05 -0.05
0.3875 0.05 -0.05
0.4 0.05 -0.05
0.4125 0.05 -0.05
0.425 0.05 -0.05
0.4375 0.05 -0.05
0.45 0.05 -0.05
0.4625 0.05 -0.05
0.475 0.05 -0.05
0.4875 0.05 -0.05
0.5 0.05 -0.05
0.5125 0.05 -0.05
0.525 0.05 -0.05
0.5375 0.05 -0.05
0.55 0.05 -0.05
0.5625 0.05 -0.05
0.575 0.05 -0.05
0.5875 0.05 -0.05
0.6 0.05 -0.05
0.0 0.0625 -0.05
0.0125 0.0625 -0.05
0.025 0.0625 -0.05
0.0375 0.0625 -0.05
0.05 0.0625 -0.05
0.0625 0.0625 -0.05
0.075 0.0625 -0.05
0.0875 0.0625 -0.05
0.1 0.0625 -0.05
0.1125 0.0625 -0.05
0.125 0.0625 -0.05
0.1375 0.0625 -0.05
0.15 0.0625 -0.05
0.1625 0.0625 -0.05
0.175 0.0625 -0.05
0.1875 0.0625 -0.05
0.2 0.0625 -0.05
0.2125 0.0625 -0.05
0.225 0.0625 -0.05
0.2375 0.0625 -0.05
0.25 0.0625 -0.05
0.2625 0.0625 -0.05
0.275 0.0625 -0.05
0.2875 0.0625 -0.05
0.3 0.0625 -0.05
0.3125 0.0625 -0.05
0.325 0.0625 -0.05
0.3375 0.0625 -0.05
0.35 0.0625 -0.05
0.3625 0.0625 -0.05
0.375 0.0625 -0.05
0.3875 0.0625 -0.05
0.4 0.0625 -0.05
0.4125 0.0625 -0.05
0.425 0.0625 -0.05
0.4375 0.0625 -0.05
0.45 0.0625 -0.05
0.4625 0.0625 -0.05
0.475 0.0625 -0.05
0.4875 0.0625 -0.05
0.5 0.0625 -0.05
0.5125 0.0625 -0.05
0.525 0.0625 -0.05
0.5375 0.0625 -0.05
0.55 0.0625 -0.05
0.5625 0.0625 -0.05
0.575 0.0625 -0.05
0.5875 0.0625 -0.05
0.6 0.0625 -0.05
0.0 0.075 -0.05
0.0125 0.075 -0.05
0.025 0.075 -0.05
0.0375 0.075 -0.05
0.05 0.075 -0.05
0.0625 0.075 -0.05
0.075 0.075 -0.05
0.0875 0.075 -0.05
0.1 0.075 -0.05
0.1125 0.075 -0.05
0.125 0.075 -0.05
0.1375 0.075 -0.05
0.15 0.075 -0.05
0.1625 0.075 -0.05
0.175 0.075 -0.05
0.1875 0.075 -0.05
0.2 0.075 -0.05
0.2125 0.075 -0.05
0.225 0.075 -0.05
0.2375 0.075 -0.05
0.25 0.075 -0.05
0.2625 0.075 -0.05
0.275 0.075 -0.05
0.2875 0.075 -0.05
0.3 0.075 -0.05
0.3125 0.075 -0.05
0.325 0.075 -0.05
0.3375 0.075 -0.05
0.35 0.075 -0.05
0.3625 0.075 -0.05
0.375 0.075 -0.05
0.3875 0.075 -0.05
0.4 0.075 -0.05
0.4125 0.075 -0.05
0.425 0.075 -0.05
0.4375 0.075 -0.05
0.45 0.075 -0.05
0.4625 0.075 -0.05
0.475 0.075 -0.05
0.4875 0.075 -0.05
0.5 0.075 -0.05
0.5125 0.075 -0.05
0.525 0.075 -0.05
0.5375 0.075 -0.05
0.55 0.075 -0.05
0.5625 0.075 -0.05
0.575 0.075 -0.05
0.5875 0.075 -0.05
0.6 0.075 -0.05
0.0 0.0875 -0.05
0.0125 0.0875 -0.05
0.025 0.0875 -0.05
0.0375 0.0875 -0.05
0.05 0.0875 -0.05
0.0625 0.0875 -0.05
0.075 0.0875 -0.05
0.0875 0.0875 -0.05
0.1 0.0875 -0.05
0.1125 0.0875 -0.05
0.125 0.0875 -0.05
0.1375 0.0875 -0.05
0.15 0.0875 -0.05
0.1625 0.0875 -0.05
0.175 0.0875 -0.05
0.1875 0.0875 -0.05
0.2 0.0875 -0.05
0.2125 0.0875 -0.05
0.225 0.0875 -0.05
0.2375 0.0875 -0.05
0.25 0.0875 -0.05
0.2625 0.0875 -0.05
0.275 0.0875 -0.05
0.2875 0.0875 -0.05
0.3 0.0875 -0.05
0.3125 0.0875 -0.05
0.325 0.0875 -0.05
0.3375 0.0875 -0.05
0.35 0.0875 -0.05
0.3625 0.0875 -0.05
0.375 0.0875 -0.05
0.3875 0.0875 -0.05
0.4 0.0875 -0.05
0.4125 0.0875 -0.05
0.425 0.0875 -0.05
0.4375 0.0875 -0.05
0.45 0.0875 -0.05
0.4625 0.0875 -0.05
0.475 0.0875 -0.05
0.4875 0.0875 -0.05
0.5 0.0875 -0.05
0.5125 0.0875 -0.05
0.525 0.0875 -0.05
0.5375 0.0875 -0.05
0.55 0.0875 -0.05
0.5625 0.0875 -0.05
0.575 0.0875 -0.05
0.5875 0.0875 -0.05
0.6 0.0875 -0.05
0.0 0.1 -0.05
0.0125 0.1 -0.05
0.025 0.1 -0.05
0.0375 0.1 -0.05
0.05 0.1 -0.05
0.0625 0.1 -0.05
0.075 0.1 -0.05
0.0875 0.1 -0.05
0.1 0.1 -0.05
0.1125 0.1 -0.05
0.125 0.1 -0.05
0.1375 0.1 -0.05
0.15 0.1 -0.05
0.1625 0.1 -0.05
0.175 0.1 -0.05
0.1875 0.1 -0.05
0.2 0.1 -0.05
0.2125 0.1 -0.05
0.225 0.1 -0.05
0.2375 0.1 -0.05
0.25 0.1 -0.05
0.2625 0.1 -0.05
0.275 0.1 -0.05
0.2875 0.1 -0.05
0.3 0.1 -0.05
0.3125 0.1 -0.05
0.325 0.1 -0.05
0.3375 0.1 -0.05
0.35 0.1 -0.05
0.3625 0.1 -0.05
0.375 0.1 -0.05
0.3875 0.1 -0.05
0.4 0.1 -0.05
0.4125 0.1 -0.05
0.425 0.1 -0.05
0.4375 0.1 -0.05
0.45 0.1 -0.05
0.4625 0.1 -0.05
0.475 0.1 -0.05
0.4875 0.1 -0.05
0.5 0.1 -0.05
0.5125 0.1 -0.05
0.525 0.1 -0.05
0.5375 0.1 -0.05
0.55 0.1 -0.05
0.5625 0.1 -0.05
0.575 0.1 -0.05
0.5875 0.1 -0.05
0.6 0.1 -0.05
0.0 0.1125 -0.05
0.0125 0.1125 -0.05
0.025 0.1125 -0.05
0.0375 0.1125 -0.05
0.05 0.1125 -0.05
0.0625 0.1125 -0.05
0.075 0.1125 -0.05
0.0875 0.1125 -0.05
0.1 0.1125 -0.05
0.1125 0.1125 -0.05
0.125 0.1125 -0.05
0.1375 0.1125 -0.05
0.15 0.1125 -0.05
0.1625 0.1125 -0.05
0.175 0.1125 -0.05
0.1875 0.1125 -0.05
0.2 0.1125 -0.05
0.2125 0.1125 -0.05
0.225 0.1125 -0.05
0.2375 0.1125 -0.05
0.25 0.1125 -0.05
0.2625 0.1125 -0.05
0.275 0.1125 -0.05
0.2875 0.1125 -0.05
0.3 0.1125 -0.05
0.3125 0.1125 -0.05
0.325 0.1125 -0.05
0.3375 0.1125 -0.05
0.35 0.1125 -0.05
0.3625 0.1125 -0.05
0.375 0.1125 -0.05
0.3875 0.1125 -0.05
0.4 0.1125 -0.05
0.4125 0.1125 -0.05
0.425 0.1125 -0.05
0.4375 0.1125 -0.05
0.45 0.1125 -0.05
0.4625 0.1125 -0.05
0.475 0.1125 -0.05
0.4875 0.1125 -0.05
0.5 0.1125 -0.05
0.5125 0.1125 -0.05
0.525 0.1125 -0.05
0.5375 0.1125 -0.05
0.55 0.1125 -0.05
0.5625 0.1125 -0.05
0.575 0.1125 -0.05
0.5875 0.1125 -0.05
0.6 0.1125 -0.05
0.0 0.125 -0.05
0.0125 0.125 -0.05
0.025 0.125 -0.05
0.0375 0.125 -0.05
0.05 0.125 -0.05
0.0625 0.125 -0.05
0.075 0.125 -0.05
0.0875 0.125 -0.05
0.1 0.125 -0.05
0.1125 0.125 -0.05
0.125 0.125 -0.05
0.1375 0.125 -0.05
0.15 0.125 -0.05
0.1625 0.125 -0.05
0.175 0.125 -0.05
0.1875 0.125 -0.05
0.2 0.125 -0.05
0.2125 0.125 -0.05
0.225 0.125 -0.05
0.2375 0.125 -0.05
0.25 0.125 -0.05
0.2625 0.125 -0.05
0.275 0.125 -0.05
0.2875 0.125 -0.05
0.3 0.125 -0.05
0.3125 0.125 -0.05
0.325 0.125 -0.05
0.3375 0.125 -0.05
0.35 0.125 -0.05
0.3625 0.125 -0.05
0.375 0.125 -0.05
0.3875 0.125 -0.05
0.4 0.125 -0.05
0.4125 0.125 -0.05
0.425 0.125 -0.05
0.4375 0.125 -0.05
0.45 0.125 -0.05
0.4625 0.125 -0.05
0.475 0.125 -0.05
0.4875 0.125 -0.05
0.5 0.125 -0.05
0.5125 0.125 -0.05
0.525 0.125 -0.05
0.5375 0.125 -0.05
0.55 0.125 -0.05
0.5625 0.125 -0.05
0.575 0.125 -0.05
0.5875 0.125 -0.05
0.6 0.125 -0.05
0.0 0.1375 -0.05
0.0125 0.1375 -0.05
0.025 0.1375 -0.05
0.0375 0.1375 -0.05
0.05 0.1375 -0.05
0.0625 0.1375 -0.05
0.075 0.1375 -0.05
0.0875 0.1375 -0.05
[...]
CELL_DATA 16128
SCALARS P float 1
LOOKUP_TABLE default
100000.0
100000.0
100000.00000000006
100000.0
100000.0
100000.0
100000.0
100000.0
100000.0
100000.0
100000.0
100000.0
100000.00000000007
100000.00000000064
100000.00000000399
100000.00000002103
100000.00000010777
100000.00000054398
100000.00000271258
100000.00001337586
100000.0000652215
100000.00031444298
100000.00149886106
100000.00706390491
100000.03291548202
100000.15165101322
100000.69088525907
100003.11251636138
100013.8670270785
100061.09244923157
100265.98776779143
101141.56146883158
104788.14918222063
119120.93476754856
167583.90094719402
290425.9464787081
510483.5876576907
793026.3855135662
1.0534036768938443e6
1.220540749278657e6
1.292173451919993e6
1.3114615777300685e6
1.3133777138881937e6
1.3117269740134636e6
1.309986218594096e6
1.308772426758647e6
1.3082891327736324e6
1.3211631768128318e6
100000.0
100000.0
100000.0
100000.0
100000.0
100000.0
100000.0
100000.0
100000.0
100000.0
100000.0
100000.0
100000.00000000006
100000.00000000067
100000.00000000391
100000.00000002075
100000.00000010646
100000.00000053637
100000.00000267294
100000.0000131733
100000.00006419547
100000.0003093137
100000.00147353516
100000.00694042671
100000.0323210705
100000.14882624777
100000.67763712734
100003.0512252419
100013.58755810955
100059.83870290533
100260.47543748912
101118.03897538675
104693.14111338393
118781.99593493319
166694.70022437957
289206.15608395985
510894.52198991284
798612.1650015953
1.0667442348407325e6
1.2408367261480347e6
1.3163536721064553e6
1.336868359166976e6
1.3386241751894054e6
1.3362842413748966e6
1.3337422693711924e6
1.3317978772082916e6
1.3307945581181457e6
1.3438078070197178e6
100000.0
100000.0
100000.00000000006
100000.0
100000.0
100000.0
100000.0
100000.0
100000.0
100000.0
100000.0
100000.0
100000.00000000006
100000.00000000067
100000.00000000383
100000.00000002024
100000.0000001034
100000.0000005207
100000.00000259213
100000.00001275941
100000.00006210052
100000.00029883631
100000.00142177961
100000.006687926
100000.03110447068
100000.14303754509
100000.65044016996
100002.92507263333
100013.01001533533
100057.23068780727
100248.878982798
101067.53498240448
104481.0586027014
117962.94436313135
164127.50264404545
283484.4369625299
501931.9296435495
788429.746967976
1.0583070891979684e6
1.235757230450909e6
1.3141326877721131e6
1.3362487376120563e6
1.3387007462796543e6
1.3366273195351795e6
1.334187622728938e6
1.3322871458822412e6
1.3314097141355702e6
1.344947364144463e6
100000.0
100000.0
100000.0
100000.0
100000.0
100000.0
100000.0
100000.0
100000.0
100000.0
100000.0
100000.0
100000.00000000015
100000.0000000006
100000.00000000373
100000.0000000195
100000.0000000991
100000.00000049801
100000.000002475
100000.00001215968
100000.00005906948
100000.00028370047
100000.00134711774
100000.00632412209
100000.02935338314
100000.13471175378
100000.61133540918
100002.74363367996
100012.17839722017
100053.46605945392
100232.06500917794
100993.75393174024
104167.33515500717
116725.43789372186
160111.94163584613
274120.0074011418
486489.57152693433
769802.1996508088
1.0416211747828921e6
1.2243747351678433e6
1.3076662634249523e6
1.332665802811161e6
1.3364757386190575e6
1.3350465571252257e6
1.3329739442989824e6
1.3313238073625707e6
1.3307553482218878e6
1.345097173144811e6
100000.0
100000.0
100000.00000000006
100000.0
100000.0
100000.0
100000.0
100000.0
100000.0
100000.0
100000.0
100000.0
100000.00000000012
100000.00000000061
100000.0000000036
100000.00000001848
100000.00000009367
100000.00000046943
100000.00000232663
100000.0000114026
100000.00005525192
100000.00026468404
100000.00125353341
100000.00586912462
100000.02716782181
100000.12433907378
100000.56269118865
100002.51819322069
100011.14578450199
100048.79167218595
100211.17041198467
100901.87402083771
103774.96722419607
115162.86887013391
154939.29561720823
261745.65965229357
465627.34210662096
744181.9141186464
1.018319546005572e6
1.208284090773792e6
1.2984275574841062e6
1.3274352306221465e6
1.3330768834664722e6
1.3324710856331952e6
1.3308441961168484e6
1.3294960731151805e6
1.3293039979748875e6
1.3447080011841792e6
100000.0
100000.0
100000.0
100000.0
100000.0
100000.0
100000.0
100000.0
100000.0
100000.0
100000.0
100000.0
100000.00000000006
100000.00000000064
100000.00000000336
100000.00000001714
100000.00000008715
100000.00000043568
100000.00000215338
100000.00001052106
100000.00005082253
100000.00024269296
100000.00114565797
100000.00534627738
100000.02466387891
100000.11248936722
100000.50727026722
100002.26199091265
100009.97495777464
100043.50241081679
100187.56724096177
100798.18937515806
103331.88478324698
113387.50256660732
148948.05124295998
246996.53887807048
440075.9111197287
712026.0919805901
988377.7160751255
1.1871558611331303e6
1.286079621665735e6
1.3203164222802827e6
1.3283254928973787e6
1.328736742799522e6
1.3276256983299102e6
1.3266192661770065e6
1.3268660604338078e6
1.3436289929748385e6
100000.0
100000.0
100000.00000000006
100000.0
100000.0
100000.0
100000.0
100000.0
100000.0
100000.0
100000.0
100000.0
100000.00000000006
100000.00000000063
100000.00000000304
100000.00000001586
100000.00000008006
100000.00000039839
100000.00000196198
100000.00000955212
100000.00004597266
100000.00021871159
100000.00102849302
100000.00478066466
100000.02196575234
100000.09976999213
100000.44800774122
100001.98905200165
100008.7322263125
100037.908562194
100162.69129929123
100689.2361594066
102866.85581787663
111515.32033324499
142499.15392649148
230568.64319251556
410617.03828079236
673738.4977305817
951559.8273783339
1.1603446260474168e6
1.269977066402126e6
1.3108277339914602e6
1.3218643382688914e6
1.3235408817053826e6
1.3230300045412432e6
1.3224058757899646e6
1.3231619796933767e6
1.3416315374386504e6
100000.0
100000.0
100000.0
100000.0
100000.0
100000.0
100000.0
100000.0
100000.0
100000.0
100000.0
100000.0
100000.00000000006
100000.00000000047
100000.00000000276
100000.00000001439
100000.0000000723
100000.00000035878
100000.00000175968
100000.00000853286
100000.0000408965
100000.0001937315
100000.00090703259
100000.00419711815
100000.01919535744
100000.08677220732
100000.38773704608
100001.71279856357
100007.4804563509
100032.30126645544
100137.87442315333
100581.00779891378
102406.06556749126
109653.24315755581
135946.91747564884
213208.3247729597
378164.25660133833
629873.8138432999
907686.0626747268
1.1271199034159887e6
1.2493276173740067e6
1.2983589397034035e6
1.313239491550707e6
1.3165021602059286e6
1.3166953510963696e6
1.316495451975311e6
1.3178437720633775e6
1.3384324334991837e6
100000.0
100000.0
100000.00000000006
100000.0
100000.0
100000.0
100000.0
100000.0
100000.0
100000.0
100000.0
100000.0
100000.00000000015
100000.00000000051
100000.0000000025
100000.00000001282
100000.00000006436
100000.00000031812
100000.00000155364
100000.00000749965
100000.00003577853
100000.00016868356
100000.00078590798
100000.0036183813
100000.01646298291
100000.07402417818
100000.32895660587
100001.44490659867
100006.27356095568
100026.92645850085
100114.22423747239
100478.41780680405
101970.81957015365
107889.8112797105
129610.1781429341
195675.42993784786
343764.90931173455
581202.5896878677
856732.355264562
1.0867387880860888e6
1.223218058177478e6
1.28217566764144e6
1.3019008358534637e6
1.3071594903742347e6
1.3081817690660194e6
1.3084446358722574e6
1.3104817939195712e6
1.3336940444163852e6
100000.0
100000.0
100000.0
100000.0
100000.0
100000.0
100000.0
100000.0
100000.0
100000.0
100000.0
100000.0
100000.00000000015
100000.00000000036
100000.00000000214
100000.00000001123
100000.00000005645
100000.00000027767
100000.00000134998
100000.00000648513
100000.0000307833
100000.00014438278
100000.00066910879
100000.00306372695
100000.0138605032
100000.06195817915
100000.27367398562
100001.19457922805
100005.15318299951
100021.9701066004
100092.56028199634
100385.03000147484
101576.40318493177
106289.83642445937
123748.03199594004
178694.89314352625
308572.7114586331
528742.5904473057
798910.0611687064
1.0385095507174819e6
1.190624800833802e6
1.2614030005002804e6
1.287183847274364e6
1.2949552282181554e6
1.2969504738824645e6
1.2976984138391954e6
1.3005304057136294e6
1.3270147179014254e6
100000.0
100000.0
100000.0
100000.0
100000.0
100000.0
100000.0
100000.0
100000.0
100000.0
100000.0
100000.0
100000.00000000003
100000.00000000036
100000.00000000192
100000.00000000972
100000.00000004876
100000.00000023875
100000.00000115446
100000.0000055169
100000.00002604694
100000.00012149184
100000.00055980854
100000.0025481342
100000.01145762217
100000.05089391468
100000.22333418932
100000.9682508353
100004.14754007923
100017.55404838688
100073.40067802112
100303.02124925659
101231.95290661721
104893.00771481122
118543.83035787016
162904.1011545091
273799.35177877976
473770.68470193044
734747.378894531
981874.8744924088
1.150433725024967e6
1.235001844508533e6
1.2682785105683946e6
1.2792040766506584e6
1.2823249747424563e6
1.2835344368828712e6
1.287257612748817e6
1.3178994256019825e6
100000.0
100000.0
100000.0
100000.0
100000.0
100000.0
100000.0
100000.0
100000.0
100000.0
100000.0
100000.0
99999.99999999997
100000.00000000035
100000.00000000167
100000.0000000084
100000.0000000414
100000.00000020201
100000.00000097149
100000.00000461693
100000.0000216741
100000.00010050228
100000.0004602877
100000.00208200682
100000.00930095898
100000.04103642462
100000.17882134195
100000.76965309952
100003.27201712319
100013.74008300835
100056.9869193226
100233.3163003169
100941.08657593386
103715.82624957086
114099.75208406291
148803.23279452347
240645.81517991485
417811.27989454026
665170.9087315485
916525.3701380229
1.1014854006899265e6
1.2017471066657132e6
1.244188311097662e6
1.2590477373573652e6
1.2634300333435282e6
1.264967282338139e6
1.2696095219322941e6
1.3056841587599097e6
100000.0
100000.0
100000.0
100000.0
100000.0
100000.0
100000.0
100000.0
100000.0
100000.0
100000.0
100000.0
100000.00000000003
100000.0000000002
100000.0000000013
100000.00000000709
100000.00000003482
100000.00000016831
100000.00000080431
100000.00000380057
100000.00001773554
100000.00008173403
100000.00037194963
100000.00167134686
100000.00741541207
100000.03248522058
100000.14051460303
100000.60013734792
100002.53094387292
100010.53941894587
100043.33237961755
100175.82650279213
100702.99481482332
102755.80409581358
110442.17419920459
136717.3057456863
210214.70279660728
362592.8756596113
591578.120907818
842549.4050940791
1.0426654265677487e6
1.160222053414192e6
1.2136862610157288e6
1.2333996983917765e6
1.2391095279641796e6
1.2405997899015357e6
1.2459618166729405e6
1.2893322875561486e6
100000.0
100000.0
100000.0
100000.0
100000.0
100000.0
100000.0
100000.0
100000.0
100000.0
100000.0
100000.0
99999.99999999997
100000.00000000017
100000.00000000114
100000.00000000588
100000.0000000287
100000.00000013784
100000.00000065521
100000.00000307715
100000.00001427064
100000.0000653453
100000.00029539986
100000.00131825503
100000.00580709091
100000.02525072532
100000.1083772271
100000.45914320904
100001.91999845284
100007.92471248805
100032.2812045043
100129.72991135882
100513.71292323807
101996.72984837378
107535.71592119413
126778.97531157908
183409.24254686397
309962.12012005365
515884.61854234734
760620.3156031116
973066.7643032587
1.1088554481138953e6
1.1752854922626726e6
1.200897363185689e6
1.2078394102458176e6
1.2084222464730956e6
1.2136756055365372e6
1.266863442630145e6
100000.0
100000.0
100000.0
100000.0
100000.0
100000.0
100000.0
100000.0
100000.0
100000.0
100000.0
100000.0
100000.00000000003
100000.00000000019
100000.0000000009
100000.00000000477
100000.00000002324
100000.00000011099
100000.00000052489
100000.00000245016
100000.00001129018
100000.00005135647
100000.00023057175
100000.00102163243
100000.0044671185
100000.01927432875
100000.08205982673
100000.3447186002
100001.42877212568
100005.84247150665
100023.56714882693
100093.74457474072
100367.35301951418
101413.959495425
105302.09459153398
118938.26678971646
160832.91808283993
261743.96077061218
440519.3341812555
672210.016589831
892257.5025344464
1.0460512319673236e6
1.1272755648739557e6
1.1599018303013195e6
1.1677062114438836e6
1.1656353648226962e6
1.168410694806518e6
1.2334526372868775e6
100000.0
100000.0
100000.0
100000.0
100000.0
100000.0
100000.0
100000.0
100000.0
100000.0
100000.0
100000.0
99999.99999999997
100000.00000000006
100000.00000000077
100000.00000000377
100000.00000001855
100000.00000008801
100000.00000041354
100000.00000191828
100000.00000878201
100000.00003967581
100000.00017687488
100000.00077796646
100000.00337570779
100000.01444906725
100000.06100310716
100000.25402025507
100001.04316284458
100004.22429810699
100016.86547734968
100066.36416127025
100257.15514873077
100979.01696321969
103639.51345024326
112998.78818621577
142714.45712289496
219541.89935111543
368324.9971573505
579788.6600733105
800675.5807553807
970458.5477792467
1.0678275770255823e6
1.108622856258869e6
1.1164893970752e6
1.108407925534029e6
1.1023985517917774e6
1.1715656050860374e6
100000.0
100000.0
100000.0
100000.0
100000.0
100000.0
100000.0
100000.0
100000.0
100000.0
100000.0
100000.0
100000.0
100000.00000000013
100000.00000000064
100000.00000000292
100000.00000001445
100000.00000006867
100000.0000003204
100000.00000147686
100000.00000671559
100000.00003012948
100000.00013334808
100000.00058211261
100000.0025060693
100000.0106387864
100000.04453010156
100000.18374959077
100000.74739853325
100002.99611854363
100011.83437782401
100046.04115905652
100176.29128293018
100663.14245454232
102439.24551692253
108671.63926099786
128889.46905802887
184494.1663301084
302309.0364440487
486920.33757026325
700149.8653358773
881534.9724759008
995374.0968796429
1.0452643671109561e6
1.0505196800309117e6
1.0237612694243299e6
964419.5339938448
847604.4441971063
100000.0
100000.0
100000.0
100000.0
100000.0
100000.0
100000.0
100000.0
100000.0
100000.0
100000.0
100000.0
100000.0
100000.00000000015
100000.00000000051
100000.00000000244
100000.00000001112
100000.0000000525
100000.00000024421
100000.0000011178
100000.00000504834
100000.00002248952
100000.00009880296
100000.00042800355
100000.00182784766
100000.00769446268
100000.03192226162
100000.13050100554
100000.52560246053
100002.08509201385
100008.1449292831
100031.31512886753
100118.41399320014
100439.71261420513
101597.72378571998
105632.66527041266
118860.34183763979
157046.04922612652
245204.03151258815
398082.31341847347
594393.6219170915
780567.4005176829
910299.9527994647
972782.043396025
981062.1647855141
947258.5581676703
872491.1681389904
744258.4741391537
100000.0
100000.0
100000.0
100000.0
100000.0
100000.0
100000.0
100000.0
100000.0
100000.0
100000.0
100000.0
100000.0
100000.00000000015
100000.00000000036
100000.00000000167
100000.00000000848
100000.0000000397
100000.00000018293
100000.00000083187
100000.00000373082
100000.00001650049
100000.00007194967
100000.0003092486
100000.00130991894
100000.00546704025
100000.02247722092
100000.09101662417
100000.36289374558
100001.42426483601
100005.50037468322
100020.89121082606
100077.97775029126
100285.640307455
101023.94713601653
103569.54942770411
111925.22785127172
136846.56040924706
198886.02952040505
317990.7683244237
488830.75250587135
670736.9669692795
813500.7269831317
892251.3548226155
911131.5592439143
882192.595915995
812017.1851351405
701337.2101081442
100000.0
100000.0
100000.0
100000.0
100000.0
100000.0
100000.0
100000.0
100000.0
100000.0
100000.0
100000.0
100000.0
100000.00000000015
100000.00000000022
100000.00000000134
100000.00000000637
100000.0000000294
100000.00000013458
100000.00000060853
100000.00000271024
100000.00001190025
100000.00005149821
100000.0002195977
100000.00092248732
100000.00381666522
100000.01554851889
100000.06235291962
100000.246066994
100000.95525671168
100003.64636978402
100013.67791404425
100050.3778986162
100181.95238974324
100642.9002899056
102211.63088282272
107331.70181961576
122867.64509464275
163891.66524253317
250594.23796510737
389853.3393195833
557245.1262058746
706718.1422032432
803015.477669383
838704.1221452011
823272.7958303106
766892.2710412885
677510.6193299826
100000.0
100000.0
100000.0
100000.0
100000.0
100000.0
100000.0
100000.0
100000.0
100000.0
100000.0
100000.0
100000.0
100000.0000000001
100000.00000000015
100000.00000000092
100000.00000000457
100000.00000002155
100000.0000000975
100000.00000043775
100000.00000193577
100000.00000843723
100000.0000362329
100000.00015327269
100000.00063849872
100000.00261856099
100000.01056918876
100000.0419714584
100000.16392248277
100000.62936937387
100002.37424069399
100008.79436588167
100031.95638067013
100113.76934822887
100396.0040920025
101342.52786171318
104399.99668522023
113719.98555139141
139317.59588771051
198085.2357918289
303548.2665305506
447071.027364332
593732.972371258
704525.4472382736
760280.5782196564
764087.4112202718
726392.0123224781
658257.5150012084
100000.0
100000.0
100000.0
100000.0
100000.0
100000.0
100000.0
100000.0
100000.0
100000.0
100000.0
100000.0
100000.0
100000.00000000003
100000.00000000017
100000.0000000006
100000.00000000343
100000.00000001535
100000.00000006931
100000.00000030958
100000.00000135945
100000.00000588129
100000.00002506272
100000.00010517101
100000.00043444471
100000.00176602529
100000.00706203617
100000.02776939265
100000.10732917179
100000.40753473394
100001.51929909481
100005.55683291543
100019.92039342433
100069.90158584311
100239.63743189626
100800.0538130975
102586.51115599496
108009.10046103831
123213.47568586719
160378.31072415572
234180.89730126798
347759.4999862127
480826.83736378717
598375.1980304362
673253.342181328
699128.6274700052
683114.4616869601
636392.227021177
100000.0
100000.0
100000.0
100000.0
100000.0
100000.0
100000.0
100000.0
100000.0
100000.0
100000.0
100000.0
100000.0
100000.0
100000.00000000007
100000.00000000042
100000.00000000215
100000.00000001088
100000.0000000486
100000.0000002153
100000.00000093867
100000.00000403127
100000.00001704688
100000.00007096033
100000.00029066559
100000.00117115484
100000.00463983433
100000.01806620955
100000.06910247315
100000.25949809028
100000.95608028141
100003.4531515681
100012.2137576072
100042.2485943435
100142.65937086187
100468.92873335617
101493.70967228644
104574.52000389753
113266.50724637005
135381.0893094378
183100.9123399326
265515.5068264906
375951.7524383019
489498.4745929395
577661.2180154539
624855.4898217022
631811.2150079045
607095.4369138851
100000.0
100000.0
100000.0
100000.0
100000.0
100000.0
100000.0
100000.0
100000.0
100000.0
100000.0
100000.0
100000.0
100000.0
100000.00000000015
100000.0000000003
100000.00000000157
100000.00000000745
100000.00000003345
100000.00000014724
100000.00000063759
100000.0000027178
100000.000011404
100000.0000470907
100000.00019127755
100000.00076394016
100000.00299863848
100000.01156231853
100000.04377064724
100000.16257889348
100000.59206106022
100002.11204545996
100007.3722455459
100025.1453499694
100083.65494020106
100270.77364489702
100849.49700781182
102567.66852126773
107399.75393375238
119943.56470354306
148659.99986127106
203422.69439504514
286703.46357436554
385755.71081833896
477187.3047322384
540782.775829328
569464.4961024618
566866.8434161677
100000.0
100000.0
100000.0
100000.0
100000.0
100000.0
100000.0
100000.0
100000.0
100000.0
100000.0
100000.0
100000.0
100000.0
100000.00000000009
100000.00000000023
100000.00000000102
100000.000000005
100000.00000002272
100000.0000000991
100000.00000042602
100000.00000180241
100000.0000075053
100000.00003074556
100000.00012384761
100000.00049033192
100000.00190709469
100000.00728282571
100000.02729052174
100000.1002791405
100000.36103577077
100001.27239047174
100004.38455489275
100014.75213147463
100048.3765211444
100154.25663036431
100476.71370309105
101420.9322622122
104054.1139453934
110930.42098410895
127237.83036783461
160772.2383129154
217763.11658211757
295387.3234392627
379181.3093399493
450365.28310248634
496098.69048318034
513955.78134327853
100000.0
100000.0
100000.0
100000.0
100000.0
100000.0
100000.0
100000.0
100000.0
100000.0
100000.0
100000.0
100000.0
100000.0
99999.99999999997
100000.00000000012
100000.00000000087