# vtk DataFile Version 2.0
JuliaCFD
ASCII
DATASET UNSTRUCTURED_GRID

POINTS 32898 float
0.0 0.0 -0.05
0.0125 0.0 -0.05
0.025 0.0 -0.05
0.0375 0.0 -0.05
0.05 0.0 -0.05
0.0625 0.0 -0.05
0.075 0.0 -0.05
0.0875 0.0 -0.05
0.1 0.0 -0.05
0.1125 0.0 -0.05
0.125 0.0 -0.05
0.1375 0.0 -0.05
0.15 0.0 -0.05
0.1625 0.0 -0.05
0.175 0.0 -0.05
0.1875 0.0 -0.05
0.2 0.0 -0.05
0.2125 0.0 -0.05
0.225 0.0 -0.05
0.2375 0.0 -0.05
0.25 0.0 -0.05
0.2625 0.0 -0.05
0.275 0.0 -0.05
0.2875 0.0 -0.05
0.3 0.0 -0.05
0.3125 0.0 -0.05
0.325 0.0 -0.05
0.3375 0.0 -0.05
0.35 0.0 -0.05
0.3625 0.0 -0.05
0.375 0.0 -0.05
0.3875 0.0 -0.05
0.4 0.0 -0.05
0.4125 0.0 -0.05
0.425 0.0 -0.05
0.4375 0.0 -0.05
0.45 0.0 -0.05
0.4625 0.0 -0.05
0.475 0.0 -0.05
0.4875 0.0 -0.05
0.5 0.0 -0.05
0.5125 0.0 -0.05
0.525 0.0 -0.05
0.5375 0.0 -0.05
0.55 0.0 -0.05
0.5625 0.0 -0.05
0.575 0.0 -0.05
0.5875 0.0 -0.05
0.6 0.0 -0.05
0.0 0.0125 -0.05
0.0125 0.0125 -0.05
0.025 0.0125 -0.05
0.0375 0.0125 -0.05
0.05 0.0125 -0.05
0.0625 0.0125 -0.05
0.075 0.0125 -0.05
0.0875 0.0125 -0.05
0.1 0.0125 -0.05
0.1125 0.0125 -0.05
0.125 0.0125 -0.05
0.1375 0.0125 -0.05
0.15 0.0125 -0.05
0.1625 0.0125 -0.05
0.175 0.0125 -0.05
0.1875 0.0125 -0.05
0.2 0.0125 -0.05
0.2125 0.0125 -0.05
0.225 0.0125 -0.05
0.2375 0.0125 -0.05
0.25 0.0125 -0.05
0.2625 0.0125 -0.05
0.275 0.0125 -0.05
0.2875 0.0125 -0.05
0.3 0.0125 -0.05
0.3125 0.0125 -0.05
0.325 0.0125 -0.05
0.3375 0.0125 -0.05
0.35 0.0125 -0.05
0.3625 0.0125 -0.05
0.375 0.0125 -0.05
0.3875 0.0125 -0.05
0.4 0.0125 -0.05
0.4125 0.0125 -0.05
0.425 0.0125 -0.05
0.4375 0.0125 -0.05
0.45 0.0125 -0.05
0.4625 0.0125 -0.05
0.475 0.0125 -0.05
0.4875 0.0125 -0.05
0.5 0.0125 -0.05
0.5125 0.0125 -0.05
0.525 0.0125 -0.05
0.5375 0.0125 -0.05
0.55 0.0125 -0.05
0.5625 0.0125 -0.05
0.575 0.0125 -0.05
0.5875 0.0125 -0.05
0.6 0.0125 -0.05
0.0 0.025 -0.05
0.0125 0.025 -0.05
0.025 0.025 -0.05
0.0375 0.025 -0.05
0.05 0.025 -0.05
0.0625 0.025 -0.05
0.075 0.025 -0.05
0.0875 0.025 -0.05
0.1 0.025 -0.05
0.1125 0.025 -0.05
0.125 0.025 -0.05
0.1375 0.025 -0.05
0.15 0.025 -0.05
0.1625 0.025 -0.05
0.175 0.025 -0.05
0.1875 0.025 -0.05
0.2 0.025 -0.05
0.2125 0.025 -0.05
0.225 0.025 -0.05
0.2375 0.025 -0.05
0.25 0.025 -0.05
0.2625 0.025 -0.05
0.275 0.025 -0.05
0.2875 0.025 -0.05
0.3 0.025 -0.05
0.3125 0.025 -0.05
0.325 0.025 -0.05
0.3375 0.025 -0.05
0.35 0.025 -0.05
0.3625 0.025 -0.05
0.375 0.025 -0.05
0.3875 0.025 -0.05
0.4 0.025 -0.05
0.4125 0.025 -0.05
0.425 0.025 -0.05
0.4375 0.025 -0.05
0.45 0.025 -0.05
0.4625 0.025 -0.05
0.475 0.025 -0.05
0.4875 0.025 -0.05
0.5 0.025 -0.05
0.5125 0.025 -0.05
0.525 0.025 -0.05
0.5375 0.025 -0.05
0.55 0.025 -0.05
0.5625 0.025 -0.05
0.575 0.025 -0.05
0.5875 0.025 -0.05
0.6 0.025 -0.05
0.0 0.0375 -0.05
0.0125 0.0375 -0.05
0.025 0.0375 -0.05
0.0375 0.0375 -0.05
0.05 0.0375 -0.05
0.0625 0.0375 -0.05
0.075 0.0375 -0.05
0.0875 0.0375 -0.05
0.1 0.0375 -0.05
0.1125 0.0375 -0.05
0.125 0.0375 -0.05
0.1375 0.0375 -0.05
0.15 0.0375 -0.05
0.1625 0.0375 -0.05
0.175 0.0375 -0.05
0.1875 0.0375 -0.05
0.2 0.0375 -0.05
0.2125 0.0375 -0.05
0.225 0.0375 -0.05
0.2375 0.0375 -0.05
0.25 0.0375 -0.05
0.2625 0.0375 -0.05
0.275 0.0375 -0.05
0.2875 0.0375 -0.05
0.3 0.0375 -0.05
0.3125 0.0375 -0.05
0.325 0.0375 -0.05
0.3375 0.0375 -0.05
0.35 0.0375 -0.05
0.3625 0.0375 -0.05
0.375 0.0375 -0.05
0.3875 0.0375 -0.05
0.4 0.0375 -0.05
0.4125 0.0375 -0.05
0.425 0.0375 -0.05
0.4375 0.0375 -0.05
0.45 0.0375 -0.05
0.4625 0.0375 -0.05
0.475 0.0375 -0.05
0.4875 0.0375 -0.05
0.5 0.0375 -0.05
0.5125 0.0375 -0.05
0.525 0.0375 -0.05
0.5375 0.0375 -0.05
0.55 0.0375 -0.05
0.5625 0.0375 -0.05
0.575 0.0375 -0.05
0.5875 0.0375 -0.05
0.6 0.0375 -0.05
0.0 0.05 -0.05
0.0125 0.05 -0.05
0.025 0.05 -0.05
0.0375 0.05 -0.05
0.05 0.05 -0.05
0.0625 0.05 -0.05
0.075 0.05 -0.05
0.0875 0.05 -0.05
0.1 0.05 -0.05
0.1125 0.05 -0.05
0.125 0.05 -0.05
0.1375 0.05 -0.05
0.15 0.05 -0.05
0.1625 0.05 -0.05
0.175 0.05 -0.05
0.1875 0.05 -0.05
0.2 0.05 -0.05
0.2125 0.05 -0.05
0.225 0.05 -0.05
0.2375 0.05 -0.05
0.25 0.05 -0.05
0.2625 0.05 -0.05
0.275 0.05 -0.05
0.2875 0.05 -0.05
0.3 0.05 -0.05
0.3125 0.05 -0.05
0.325 0.05 -0.05
0.3375 0.05 -0.05
0.35 0.05 -0.05
0.3625 0.05 -0.05
0.375 0.05 -0.05
0.3875 0.05 -0.05
0.4 0.05 -0.05
0.4125 0.05 -0.05
0.425 0.05 -0.05
0.4375 0.05 -0.05
0.45 0.05 -0.05
0.4625 0.05 -0.05
0.475 0.05 -0.05
0.4875 0.05 -0.05
0.5 0.05 -0.05
0.5125 0.05 -0.05
0.525 0.05 -0.05
0.5375 0.05 -0.05
0.55 0.05 -0.05
0.5625 0.05 -0.05
0.575 0.05 -0.05
0.5875 0.05 -0.05
0.6 0.05 -0.05
0.0 0.0625 -0.05
0.0125 0.0625 -0.05
0.025 0.0625 -0.05
0.0375 0.0625 -0.05
0.05 0.0625 -0.05
0.0625 0.0625 -0.05
0.075 0.0625 -0.05
0.0875 0.0625 -0.05
0.1 0.0625 -0.05
0.1125 0.0625 -0.05
0.125 0.0625 -0.05
0.1375 0.0625 -0.05
0.15 0.0625 -0.05
0.1625 0.0625 -0.05
0.175 0.0625 -0.05
0.1875 0.0625 -0.05
0.2 0.0625 -0.05
0.2125 0.0625 -0.05
0.225 0.0625 -0.05
0.2375 0.0625 -0.05
0.25 0.0625 -0.05
0.2625 0.0625 -0.05
0.275 0.0625 -0.05
0.2875 0.0625 -0.05
0.3 0.0625 -0.05
0.3125 0.0625 -0.05
0.325 0.0625 -0.05
0.3375 0.0625 -0.05
0.35 0.0625 -0.05
0.3625 0.0625 -0.05
0.375 0.0625 -0.05
0.3875 0.0625 -0.05
0.4 0.0625 -0.05
0.4125 0.0625 -0.05
0.425 0.0625 -0.05
0.4375 0.0625 -0.05
0.45 0.0625 -0.05
0.4625 0.0625 -0.05
0.475 0.0625 -0.05
0.4875 0.0625 -0.05
0.5 0.0625 -0.05
0.5125 0.0625 -0.05
0.525 0.0625 -0.05
0.5375 0.0625 -0.05
0.55 0.0625 -0.05
0.5625 0.0625 -0.05
0.575 0.0625 -0.05
0.5875 0.0625 -0.05
0.6 0.0625 -0.05
0.0 0.075 -0.05
0.0125 0.075 -0.05
0.025 0.075 -0.05
0.0375 0.075 -0.05
0.05 0.075 -0.05
0.0625 0.075 -0.05
0.075 0.075 -0.05
0.0875 0.075 -0.05
0.1 0.075 -0.05
0.1125 0.075 -0.05
0.125 0.075 -0.05
0.1375 0.075 -0.05
0.15 0.075 -0.05
0.1625 0.075 -0.05
0.175 0.075 -0.05
0.1875 0.075 -0.05
0.2 0.075 -0.05
0.2125 0.075 -0.05
0.225 0.075 -0.05
0.2375 0.075 -0.05
0.25 0.075 -0.05
0.2625 0.075 -0.05
0.275 0.075 -0.05
0.2875 0.075 -0.05
0.3 0.075 -0.05
0.3125 0.075 -0.05
0.325 0.075 -0.05
0.3375 0.075 -0.05
0.35 0.075 -0.05
0.3625 0.075 -0.05
0.375 0.075 -0.05
0.3875 0.075 -0.05
0.4 0.075 -0.05
0.4125 0.075 -0.05
0.425 0.075 -0.05
0.4375 0.075 -0.05
0.45 0.075 -0.05
0.4625 0.075 -0.05
0.475 0.075 -0.05
0.4875 0.075 -0.05
0.5 0.075 -0.05
0.5125 0.075 -0.05
0.525 0.075 -0.05
0.5375 0.075 -0.05
0.55 0.075 -0.05
0.5625 0.075 -0.05
0.575 0.075 -0.05
0.5875 0.075 -0.05
0.6 0.075 -0.05
0.0 0.0875 -0.05
0.0125 0.0875 -0.05
0.025 0.0875 -0.05
0.0375 0.0875 -0.05
0.05 0.0875 -0.05
0.0625 0.0875 -0.05
0.075 0.0875 -0.05
0.0875 0.0875 -0.05
0.1 0.0875 -0.05
0.1125 0.0875 -0.05
0.125 0.0875 -0.05
0.1375 0.0875 -0.05
0.15 0.0875 -0.05
0.1625 0.0875 -0.05
0.175 0.0875 -0.05
0.1875 0.0875 -0.05
0.2 0.0875 -0.05
0.2125 0.0875 -0.05
0.225 0.0875 -0.05
0.2375 0.0875 -0.05
0.25 0.0875 -0.05
0.2625 0.0875 -0.05
0.275 0.0875 -0.05
0.2875 0.0875 -0.05
0.3 0.0875 -0.05
0.3125 0.0875 -0.05
0.325 0.0875 -0.05
0.3375 0.0875 -0.05
0.35 0.0875 -0.05
0.3625 0.0875 -0.05
0.375 0.0875 -0.05
0.3875 0.0875 -0.05
0.4 0.0875 -0.05
0.4125 0.0875 -0.05
0.425 0.0875 -0.05
0.4375 0.0875 -0.05
0.45 0.0875 -0.05
0.4625 0.0875 -0.05
0.475 0.0875 -0.05
0.4875 0.0875 -0.05
0.5 0.0875 -0.05
0.5125 0.0875 -0.05
0.525 0.0875 -0.05
0.5375 0.0875 -0.05
0.55 0.0875 -0.05
0.5625 0.0875 -0.05
0.575 0.0875 -0.05
0.5875 0.0875 -0.05
0.6 0.0875 -0.05
0.0 0.1 -0.05
0.0125 0.1 -0.05
0.025 0.1 -0.05
0.0375 0.1 -0.05
0.05 0.1 -0.05
0.0625 0.1 -0.05
0.075 0.1 -0.05
0.0875 0.1 -0.05
0.1 0.1 -0.05
0.1125 0.1 -0.05
0.125 0.1 -0.05
0.1375 0.1 -0.05
0.15 0.1 -0.05
0.1625 0.1 -0.05
0.175 0.1 -0.05
0.1875 0.1 -0.05
0.2 0.1 -0.05
0.2125 0.1 -0.05
0.225 0.1 -0.05
0.2375 0.1 -0.05
0.25 0.1 -0.05
0.2625 0.1 -0.05
0.275 0.1 -0.05
0.2875 0.1 -0.05
0.3 0.1 -0.05
0.3125 0.1 -0.05
0.325 0.1 -0.05
0.3375 0.1 -0.05
0.35 0.1 -0.05
0.3625 0.1 -0.05
0.375 0.1 -0.05
0.3875 0.1 -0.05
0.4 0.1 -0.05
0.4125 0.1 -0.05
0.425 0.1 -0.05
0.4375 0.1 -0.05
0.45 0.1 -0.05
0.4625 0.1 -0.05
0.475 0.1 -0.05
0.4875 0.1 -0.05
0.5 0.1 -0.05
0.5125 0.1 -0.05
0.525 0.1 -0.05
0.5375 0.1 -0.05
0.55 0.1 -0.05
0.5625 0.1 -0.05
0.575 0.1 -0.05
0.5875 0.1 -0.05
0.6 0.1 -0.05
0.0 0.1125 -0.05
0.0125 0.1125 -0.05
0.025 0.1125 -0.05
0.0375 0.1125 -0.05
0.05 0.1125 -0.05
0.0625 0.1125 -0.05
0.075 0.1125 -0.05
0.0875 0.1125 -0.05
0.1 0.1125 -0.05
0.1125 0.1125 -0.05
0.125 0.1125 -0.05
0.1375 0.1125 -0.05
0.15 0.1125 -0.05
0.1625 0.1125 -0.05
0.175 0.1125 -0.05
0.1875 0.1125 -0.05
0.2 0.1125 -0.05
0.2125 0.1125 -0.05
0.225 0.1125 -0.05
0.2375 0.1125 -0.05
0.25 0.1125 -0.05
0.2625 0.1125 -0.05
0.275 0.1125 -0.05
0.2875 0.1125 -0.05
0.3 0.1125 -0.05
0.3125 0.1125 -0.05
0.325 0.1125 -0.05
0.3375 0.1125 -0.05
0.35 0.1125 -0.05
0.3625 0.1125 -0.05
0.375 0.1125 -0.05
0.3875 0.1125 -0.05
0.4 0.1125 -0.05
0.4125 0.1125 -0.05
0.425 0.1125 -0.05
0.4375 0.1125 -0.05
0.45 0.1125 -0.05
0.4625 0.1125 -0.05
0.475 0.1125 -0.05
0.4875 0.1125 -0.05
0.5 0.1125 -0.05
0.5125 0.1125 -0.05
0.525 0.1125 -0.05
0.5375 0.1125 -0.05
0.55 0.1125 -0.05
0.5625 0.1125 -0.05
0.575 0.1125 -0.05
0.5875 0.1125 -0.05
0.6 0.1125 -0.05
0.0 0.125 -0.05
0.0125 0.125 -0.05
0.025 0.125 -0.05
0.0375 0.125 -0.05
0.05 0.125 -0.05
0.0625 0.125 -0.05
0.075 0.125 -0.05
0.0875 0.125 -0.05
0.1 0.125 -0.05
0.1125 0.125 -0.05
0.125 0.125 -0.05
0.1375 0.125 -0.05
0.15 0.125 -0.05
0.1625 0.125 -0.05
0.175 0.125 -0.05
0.1875 0.125 -0.05
0.2 0.125 -0.05
0.2125 0.125 -0.05
0.225 0.125 -0.05
0.2375 0.125 -0.05
0.25 0.125 -0.05
0.2625 0.125 -0.05
0.275 0.125 -0.05
0.2875 0.125 -0.05
0.3 0.125 -0.05
0.3125 0.125 -0.05
0.325 0.125 -0.05
0.3375 0.125 -0.05
0.35 0.125 -0.05
0.3625 0.125 -0.05
0.375 0.125 -0.05
0.3875 0.125 -0.05
0.4 0.125 -0.05
0.4125 0.125 -0.05
0.425 0.125 -0.05
0.4375 0.125 -0.05
0.45 0.125 -0.05
0.4625 0.125 -0.05
0.475 0.125 -0.05
0.4875 0.125 -0.05
0.5 0.125 -0.05
0.5125 0.125 -0.05
0.525 0.125 -0.05
0.5375 0.125 -0.05
0.55 0.125 -0.05
0.5625 0.125 -0.05
0.575 0.125 -0.05
0.5875 0.125 -0.05
0.6 0.125 -0.05
0.0 0.1375 -0.05
0.0125 0.1375 -0.05
0.025 0.1375 -0.05
0.0375 0.1375 -0.05
0.05 0.1375 -0.05
0.0625 0.1375 -0.05
0.075 0.1375 -0.05
0.0875 0.1375 -0.05
[...]
CELL_DATA 16128
SCALARS P float 1
LOOKUP_TABLE default
100000.00000005856
99999.99999983916
100000.0000004356
99999.99999881317
100000.00000322697
99999.99999122064
100000.00002387611
99999.9999350673
100000.00017655797
99999.99951997718
100000.00130487514
99999.9964534299
100000.00963768314
99999.97381489181
100000.07112841094
99999.80683707996
100000.5244112956
99998.5768779251
100003.85910077505
99989.56485599645
100027.65352859284
99939.79136065283
99815.71423819524
119088.54928280838
258974.10270110742
551286.1136013774
844676.6942514725
994839.5342077856
1.0381785783703111e6
1.0536480731211938e6
1.0654849439594909e6
1.0767024984921897e6
1.0874915659611386e6
1.0978390945854196e6
1.1077314429430673e6
1.1171569512290135e6
1.1261010246495323e6
1.1345444245753104e6
1.1424596857203252e6
1.1498178511082616e6
1.1565680837079578e6
1.1626992022879883e6
1.1680623686188075e6
1.1729005480807442e6
1.176290436955229e6
1.1807720471174277e6
1.17860315105848e6
1.192574949851708e6
100000.00000005781
99999.99999984165
100000.0000004293
99999.99999883003
100000.00000318176
99999.99999134173
100000.00002355223
99999.99993593157
100000.00017425424
99999.9995261113
100000.00128855972
99999.9964968034
100000.00952238492
99999.97412147404
100000.07031304813
99999.80900313114
100000.51868525443
99998.59180924487
100003.82140539779
99989.65308846685
100027.48312438837
99939.92600400625
99815.50347271217
118609.03775610826
257534.3304493066
550696.4652238052
847575.2309912321
1.0011398996065905e6
1.0461347857066946e6
1.0623255891738762e6
1.0745574777621245e6
1.086038159981015e6
1.097039770593041e6
1.1075877588130417e6
1.1176855800361175e6
1.127327680128512e6
1.1364999240115234e6
1.1451804427135552e6
1.1533371758037123e6
1.1609349500761747e6
1.1679153705121975e6
1.1742579490681835e6
1.179804053389537e6
1.1847842926679056e6
1.1882657044281352e6
1.1927871444834673e6
1.1905443640681875e6
1.2047211856785235e6
100000.00000005579
99999.99999984722
100000.00000041437
99999.99999887061
100000.00000307287
99999.99999163332
100000.00002277175
99999.99993801478
100000.00016870938
99999.99954082302
100000.00124966529
99999.99659919483
100000.00925421968
99999.97481936093
100000.06851127186
99999.81360767221
100000.50707204224
99998.62060363717
100003.75154175653
99989.81789175804
100027.10795279857
99940.69425990802
99812.70924723982
117480.0193947675
252939.29677839045
543463.3204070578
841134.0500863378
996919.1544718683
1.0428114817095322e6
1.0590275719773998e6
1.0711243028962251e6
1.0824480301490896e6
1.0932821102752956e6
1.1036509026970828e6
1.1135574773947247e6
1.12299713422504e6
1.1319574408582705e6
1.1404188021592796e6
1.1483520399970622e6
1.155725235171365e6
1.1624845829670576e6
1.168613257044983e6
1.173962355344014e6
1.1787595266334605e6
1.182104596596004e6
1.1864873982762827e6
1.184176629611763e6
1.1985445183610532e6
100000.00000005259
99999.99999985579
100000.00000039134
99999.99999893297
100000.00000290494
99999.99999208568
100000.00002155587
99999.99994127634
100000.00015997802
99999.99956414259
100000.00118755319
99999.99676412318
100000.00881781145
99999.97596953333
100000.06549353675
99999.821485777
100000.48661736523
99998.67340839747
100003.6159899169
99990.16349013029
100026.240698746
99942.5908467826
99811.54388193645
115772.76375927625
245761.3235181037
532388.0831975061
832307.2977055553
992791.2337598106
1.0408487932876894e6
1.0575037441564573e6
1.069669059971903e6
1.0809943762871574e6
1.091808204664371e6
1.102146801867745e6
1.112020045639217e6
1.1214281296960423e6
1.1303624022545528e6
1.1388062733580023e6
1.146733078978422e6
1.1541125173547487e6
1.1608924339671158e6
1.1670542912179471e6
1.1724523188914051e6
1.177298619989839e6
1.1807159130228504e6
1.1851282045660228e6
1.182838887498549e6
1.1975805848925405e6
100000.0000000483
99999.99999986739
100000.00000036045
99999.99999901697
100000.00000267732
99999.99999270235
100000.00001988838
99999.99994578207
100000.00014782166
99999.99959689254
100000.00109946745
99999.99700061882
100000.00818409855
99999.97766403321
100000.06097289918
99999.83351678177
100000.45468054058
99998.757956895
100003.39281962774
99990.74951590381
100024.73189771736
99945.82848192831
99816.50465534431
113625.9147559774
236231.08266221578
517344.62756208336
820096.0658651681
986931.248886716
1.0379071092650539e6
1.055032343040166e6
1.067154804634069e6
1.0783663141338087e6
1.089049884652256e6
1.0992490132853459e6
1.1089767423288957e6
1.1182360169706054e6
1.1270208208175865e6
1.1353170859324932e6
1.1431007133579901e6
1.1503434925813545e6
1.156996094349267e6
1.1630396972982648e6
1.1683352588833407e6
1.1730812404435556e6
1.1764347635544897e6
1.180753436547432e6
1.1783949351657582e6
1.1935466008090747e6
100000.00000004313
99999.99999988149
100000.00000032215
99999.99999912188
100000.00000239197
99999.99999348017
100000.0000177709
99999.9999515438
100000.0001321562
99999.9996394538
100000.00098392948
99999.9973139796
100000.00733504009
99999.97996212848
100000.05475998415
99999.85029221814
100000.40944830426
99998.87972593913
100003.06564990396
99991.62483158433
100022.4382119888
99950.7426194806
99830.24329804028
111212.82767252297
224664.89063920107
498434.8562191203
804357.9204153161
979353.7836703521
1.0342962173253354e6
1.0521051010026745e6
1.0641882357334448e6
1.0752631613706925e6
1.0857920982342851e6
1.0958278519319259e6
1.105387000309805e6
1.114475769900853e6
1.1230914556152665e6
1.1312232498966001e6
1.1388503720253918e6
1.1459473570357875e6
1.1524682663882573e6
1.1583940607234319e6
1.1635926141896478e6
1.168247236779809e6
1.1715500313146648e6
1.1757907716625163e6
1.1733626495365712e6
1.189045176150797e6
100000.00000003727
99999.99999989776
100000.00000027753
99999.99999924457
100000.00000205557
99999.99999440127
100000.00001524853
99999.99995845031
100000.00011324935
99999.99969120076
100000.00084233884
99999.99770128827
100000.00627594942
99999.98285707252
100000.04685043513
99999.87189131074
100000.35050277387
99999.04047158876
100002.62776941936
99992.81391954263
100019.27339027404
99957.63096433882
99852.60773968107
108722.19758763294
211453.7855672258
475808.3301565017
784829.5831689199
969744.6404142195
1.0298517786119069e6
1.048609485291008e6
1.0606493755229083e6
1.0715442434481003e6
1.0818698707246478e6
1.091691101151144e6
1.1010276606660157e6
1.1098887014343508e6
1.1182746893976554e6
1.1261781234742538e6
1.133581770177852e6
1.1404633291645958e6
1.1467809467812602e6
1.1525163473102425e6
1.1575459681798161e6
1.1620400009019636e6
1.1652292843790865e6
1.1693415701794205e6
1.1667911015806885e6
1.1831138188691468e6
100000.00000003078
99999.99999991563
100000.00000022806
99999.99999938045
100000.00000168219
99999.9999954289
100000.00001242103
99999.99996623273
100000.00009182627
99999.99975018504
100000.00067991113
99999.9981486459
100000.00504366567
99999.98625190879
100000.03749711036
99999.89766260856
100000.27949457795
99999.23610862301
100002.08894520593
99994.294798961
100015.27867426486
99966.54944880873
99880.46971545188
106339.89801868168
197061.99027452763
449694.16894909856
761249.3329568252
957766.5163725927
1.0244531135475585e6
1.0445317685993897e6
1.0565511333915668e6
1.0672307742332036e6
1.0773091035813873e6
1.086868135567889e6
1.0959307319193499e6
1.1045086730042468e6
1.1126054433236201e6
1.1202168763675282e6
1.127329522508149e6
1.1339247560242834e6
1.1399656434564423e6
1.145436027162784e6
1.1502226924847974e6
1.1544856373826854e6
1.1574971730837463e6
1.1614311917020814e6
1.158700445415068e6
1.1758072858747083e6
100000.00000002404
99999.99999993447
100000.00000017678
99999.99999952213
100000.0000012915
99999.99999650777
100000.00000944211
99999.99997446289
100000.0000690788
99999.9998130912
100000.00050586287
99999.99863045293
100000.00370920911
99999.98994990821
100000.02724389567
99999.92610609862
100000.20054846181
99999.45533496664
100001.48000682381
99995.98403519818
100010.67110443661
99977.13757446922
99908.71117435001
104228.98357309365
182020.62344869223
420421.5476152383
733363.3400606108
943007.0542128362
1.0179310245131729e6
1.0398367052228274e6
1.0518858945998813e6
1.062317108945315e6
1.0721010374006922e6
1.0813451027185894e6
1.0900754056621578e6
1.0983056964702788e6
1.1060418297981964e6
1.1132824305074483e6
1.120017444223826e6
1.1262317915691624e6
1.1318936317320897e6
1.1369897573314204e6
1.1414185304412986e6
1.145333079183604e6
1.1480504060305431e6
1.1517036336165937e6
1.1486828610019868e6
1.1667366103996322e6
100000.00000001752
99999.99999995276
100000.00000012635
99999.99999966111
100000.0000009076
99999.99999756948
100000.0000065059
99999.99998259213
100000.00004655827
99999.99987552746
100000.00033262995
99999.99911148591
100000.00237236128
99999.99366838728
100000.01689158528
99999.95495372209
100000.12008598082
99999.67997792976
100000.85233538052
99997.73674593844
100005.84951689372
99988.53055321208
99932.16202295241
102509.75250949571
166914.09521933625
388445.18298711337
700958.2211693905
924978.3000744012
1.0100633536965576e6
1.0344814071071104e6
1.0466521344569885e6
1.0568068753115088e6
1.0662475993059617e6
1.0751201542094331e6
1.0834543166669693e6
1.0912647854321918e6
1.0985585908545183e6
1.1053359541840006e6
1.111589122809242e6
1.117305786615042e6
1.1224589277215966e6
1.1270392186183145e6
1.1309586016355348e6
1.1343690243416098e6
1.1366380926536627e6
1.139876648195824e6
1.1364260701629098e6
1.1556480677903204e6
100000.00000001153
99999.99999996973
100000.00000008034
99999.9999997885
100000.00000055636
99999.99999854076
100000.00000381931
99999.99999002855
100000.00002595694
99999.99993265244
100000.0001740805
99999.99955198017
100000.00114725113
99999.99707948277
100000.00738286982
99999.98149276717
100000.04591922942
99999.88752457056
100000.27083317305
99999.36596546863
100001.34415586806
99999.42503114403
99947.72089847425
101243.61749350312
152355.2244694212
354368.14918840904
663903.6621978998
903117.1164735182
1.0005534996075662e6
1.0284045926553493e6
1.0408491217352328e6
1.0507081222074141e6
1.0597555781182875e6
1.0681961727863133e6
1.0760644369837479e6
1.0833745032109157e6
1.0901325297179378e6
1.0963379334773724e6
1.1019824823854857e6
1.1070534716114926e6
1.111525009591466e6
1.1153876586401472e6
1.1185621317210502e6
1.1211965622496787e6
1.1227067694692067e6
1.1252031294756387e6
1.1209652226500215e6
1.1415316689133607e6
100000.00000000633
99999.99999998372
100000.0000000412
99999.99999989607
100000.00000025984
99999.9999993573
100000.00000156835
99999.99999623824
100000.00000881104
99999.99998003735
100000.00004300012
99999.99991496452
100000.00014095979
99999.99987255342
99999.99962036996
100000.0030963085
99999.98570547822
100000.05562012988
99999.80084982041
100000.680536142
99997.70942410157
100008.33224661711
99955.62905458803
100425.57685001507
138946.16770701372
318956.95308972255
622206.351596325
876798.0467382192
989007.848133546
1.0215155305694194e6
1.0344752108253946e6
1.0440346272979855e6
1.0526392657611866e6
1.0605845839823117e6
1.0679122681423372e6
1.0746339265252047e6
1.0807519177864022e6
1.0862612925361488e6
1.0911491992783023e6
1.0953980743172527e6
1.098978905716081e6
1.1018794855113162e6
1.1040292237979113e6
1.1055824721296276e6
1.1060181838550766e6
1.1074873230308886e6
1.102176677995643e6
1.1245105445330676e6
100000.0000000024
99999.99999999502
100000.00000001097
99999.99999997878
100000.00000003418
99999.99999997382
99999.99999988308
100000.00000084746
99999.99999620029
100000.00001455846
99999.99994844795
100000.0001741048
99999.99943022453
100000.00182343276
99999.99426058008
100000.01783680332
99999.94511897654
100000.1675169608
99999.49194408121
100001.53347114318
99995.38111328878
100013.9792888394
99959.14989224693
99989.60394174115
127224.06579940548
283142.6559778573
576072.5601147087
845363.2792724548
974911.7402659522
1.0136780116937009e6
1.0275238871003113e6
1.0368057239406822e6
1.0449214359322219e6
1.0523070282687906e6
1.059016209074486e6
1.065055657709434e6
1.070419677147434e6
1.075093105451129e6
1.0790503966361636e6
1.0822577089569091e6
1.084666145617311e6
1.0862350104039586e6
1.0868656757482365e6
1.0866597593262284e6
1.0850768489684113e6
1.0842680484381225e6
1.0762848337417184e6
1.0998132945542885e6
99999.99999999955
100000.00000000258
99999.99999999038
100000.00000003414
99999.99999988561
100000.0000003731
99999.9999988123
100000.000003716
99999.99998852561
100000.00003506284
99999.99989375453
100000.00031973621
99999.99904322274
100000.00284956144
99999.99154665235
100000.02499425791
99999.92630357428
100000.21679483504
99999.36346247791
100001.86605845738
99994.54116257091
100015.73570571587
99962.69824597206
99828.41033817672
117594.84111177699
248001.16390382854
525973.9098904269
808175.6887299458
957607.5805146244
1.004688363016598e6
1.0199775219843294e6
1.029045600731628e6
1.0366343183487797e6
1.0433973645131347e6
1.0494099322616563e6
1.0546715192512043e6
1.0591633896973636e6
1.062853322361185e6
1.0656941471578008e6
1.067624711464157e6
1.068565480296643e6
1.0684393492706837e6
1.06711746640962e6
1.0646916263077573e6
1.0606847227005195e6
1.0573733292088353e6
1.0467689437327924e6
1.0731275008297672e6
99999.99999999795
100000.0000000069
99999.99999997906
100000.00000006364
99999.99999980924
100000.00000056809
99999.99999831707
100000.00000496035
99999.99998544002
100000.00004258208
99999.9998758532
100000.0003609619
99999.99895297365
100000.00303079622
99999.99124256455
100000.02526526856
99999.9272062561
100000.2094962574
99999.39764985662
100001.73030550792
99995.04212480885
100013.90086063948
99969.56030233066
99823.56207414884
110266.50736647531
214705.85284922548
472706.9869947552
764699.7204620548
936280.8864970197
994245.8434107503
1.0117973479559921e6
1.0207813301719851e6
1.027819877132521e6
1.0339028199722345e6
1.0391442014551508e6
1.0435347877183573e6
1.04703665234983e6
1.0495907031779247e6
1.051112320591634e6
1.0514873399301034e6
1.0505556592788075e6
1.0481198962044949e6
1.0438545547178487e6
1.0375070323217629e6
1.028050481293941e6
1.0168787625980967e6
994568.6855047633
1.012529632246416e6
99999.99999999709
100000.00000000838
99999.99999997545
100000.00000007192
99999.99999979227
100000.00000059772
99999.99999828373
100000.00000491407
99999.99998596373
100000.00004000023
99999.99988625175
100000.00032281343
99999.99908561341
100000.00258533075
99999.99270307236
100000.02056003395
99999.94216597118
100000.16241557203
99999.54464337371
100001.27422587067
99996.44929160917
100009.62913748401
99980.20742592741
99876.40816326899
105202.60855588935
184446.53094438987
417433.74387746915
714611.9172125789
909963.5888336286
981914.4367077887
1.0029077731765448e6
1.0120389463810218e6
1.0185293299075487e6
1.0238848467801883e6
1.0282892821396008e6
1.0317258260866852e6
1.0341322295043025e6
1.0354143503804237e6
1.0354380339274898e6
1.0340210139709163e6
1.030911829073116e6
1.0257890650494826e6
1.0181846925614307e6
1.007716017413497e6
993388.3933004595
976918.3851245916
949198.2169751445
972241.7306693726
99999.99999999715
100000.00000000797
99999.99999997701
100000.00000006534
99999.99999981611
100000.00000051587
99999.9999985545
100000.00000403769
99999.9999887499
100000.00003125708
99999.99991340465
100000.00023917657
99999.99934152499
100000.0018065087
99999.9950628539
100000.01343573006
99999.96361183366
100000.09800980835
99999.73770663154
100000.6963921295
99998.17422873298
100004.57487525292
99992.31820044316
99927.4748213807
102120.31401639084
158310.18574835735
361686.86906854954
657937.7776094435
877568.5614943842
967077.3312462319
993172.71474646
1.0028364178509725e6
1.0088210858912502e6
1.0134181608408527e6
1.0169339575053041e6
1.019350055711062e6
1.0205760591898687e6
1.0204735705180177e6
1.0188433718143331e6
1.015404504568481e6
1.0097408915138913e6
1.0012394200202342e6
988869.3298676852
971051.8115111435
944099.6470980871
903121.2022731242
824640.4187328797
696421.297454831
99999.99999999764
100000.0000000066
99999.99999998177
100000.00000005034
99999.9999998611
100000.00000037963
99999.99999896514
100000.00000280647
99999.99999242347
100000.00002034144
99999.99994572517
100000.00014376831
99999.99962242824
100000.00098134093
99999.9974820921
100000.0063548664
99999.98430725603
100000.03759511569
99999.91389607129
100000.18306400381
99999.6662129053
100000.31905135387
100002.43601605437
99957.11715085022
100549.70699326973
137124.16503860126
307322.3432306719
595202.4965687272
837973.3060201443
948889.9613125023
982361.5975876702
993172.2850656916
998756.9350785129
1.0025887184342127e6
1.0051841164949348e6
1.0065381963550514e6
1.0065333240430363e6
1.0049840915427998e6
1.0016267457647562e6
996078.2115123431
987765.6307595072
975825.0210919031
958822.7456617847
934537.429065369
898431.3862646986
844581.544269894
753563.9727223584
617298.730449787
99999.99999999806
100000.00000000444
99999.99999998717
100000.00000003372
99999.9999999102
100000.00000023676
99999.99999937987
100000.00000160719
99999.99999588207
100000.00001039577
99999.9999742468
100000.00006219384
99999.99985512799
100000.0003192787
99999.99936073378
100000.00103873531
99999.99930745103
99999.99539960605
100000.03219683783
99999.85267723218
100000.58320418985
99997.83504085992
100007.9974237193
99970.57746983274
99948.35179798231
121281.00397439873
256402.4958988939
527569.1120075153
790169.6213254264
926244.0340244214
970102.7337332756
983007.9823037997
988395.5360838304
991489.4337257007
993157.5293735187
993438.4058487744
992192.9044089341
989198.9950363772
984136.3429453986
976545.4310391494
965748.7324749746
950746.7901675703
929958.853876484
901064.6973393953
859831.5161915522
801334.576150371
712535.1395384809
591953.6504725899
99999.99999999894
100000.0000000027
99999.9999999924
100000.00000001886
99999.99999995195
100000.00000011854
99999.99999971184
100000.00000067768
99999.99999847292
100000.00000320547
99999.99999410492
100000.00000764352
100000.00000405624
99999.99991557458
100000.00044587927
99999.9981515067
100000.0068927145
99999.9757924815
100000.08179686248
99999.73096546515
100000.86768322866
99997.24151112711
100008.5815708851
99979.12535478803
99834.58159438692
110600.70024713819
211000.07009395587
456922.7372882207
733485.4774552677
897762.5161293744
955822.3384514694
972240.9108843307
977782.2477503261
980213.7909805232
980976.3657751724
980203.4723112779
977751.1698335836
973371.9912003321
966709.8573179465
957262.7797533409
944311.6390769396
926833.743984186
903299.0224113797
871604.0957269833
828281.9734763389
769784.6751067166
688135.5930226964
584918.1751533252
99999.99999999936
100000.00000000125
99999.99999999638
100000.0000000081
99999.99999998137
100000.00000003862
99999.99999992782
100000.00000009932
100000.00000000728
99999.99999918038
100000.00000451568
99999.99998119545
100000.00006965882
99999.9997582331
100000.00080454108
99999.99740128794
100000.00820645207
99999.97454919977
100000.07774413886
99999.76563895056
100000.69798950836
99997.94828559531
100005.81075418099
99988.58179367526
99882.78578431383
104316.58235639533
172925.81022143055
385854.28865337896
667866.7211493542
861855.2465840942
938670.7319192003
960664.3183086417
966933.8972573696
968847.9215445401
968759.4483111848
966981.0248824545
963391.8721526527
957733.5193152316
949636.2385126456
938589.8288107417
923887.4261088066
904564.241750522
879256.1797262367
846207.8662510732
802790.3805469049
746639.8864009067
673188.5616290917
584812.2417607595
99999.99999999965
100000.00000000054
99999.99999999892
100000.00000000164
99999.99999999831
99999.99999999529
100000.0000000363
99999.99999983242
100000.00000064257
99999.99999773862
100000.000007539
99999.99997577159
100000.00007573212
99999.99976849319
100000.00069434717
99999.99795298229
100000.0059366266
99999.98306526204
100000.04746509569
99999.8695764311
100000.34987897269
99999.09298640344
100002.14809563293
99997.89420411935
99939.64688564626
101245.53401850758
143395.7564002045
317504.2697513616
594180.9305222264
816875.8554115809
917447.3337075
947910.1577306333
955816.3141473939
957460.735546412
956614.0905709048
953905.607866274
949275.7774760517
942475.068345593
933139.6534935841