# vtk DataFile Version 2.0
JuliaCFD
ASCII
DATASET UNSTRUCTURED_GRID

POINTS 32898 float
0.0 0.0 -0.05
0.0125 0.0 -0.05
0.025 0.0 -0.05
0.0375 0.0 -0.05
0.05 0.0 -0.05
0.0625 0.0 -0.05
0.075 0.0 -0.05
0.0875 0.0 -0.05
0.1 0.0 -0.05
0.1125 0.0 -0.05
0.125 0.0 -0.05
0.1375 0.0 -0.05
0.15 0.0 -0.05
0.1625 0.0 -0.05
0.175 0.0 -0.05
0.1875 0.0 -0.05
0.2 0.0 -0.05
0.2125 0.0 -0.05
0.225 0.0 -0.05
0.2375 0.0 -0.05
0.25 0.0 -0.05
0.2625 0.0 -0.05
0.275 0.0 -0.05
0.2875 0.0 -0.05
0.3 0.0 -0.05
0.3125 0.0 -0.05
0.325 0.0 -0.05
0.3375 0.0 -0.05
0.35 0.0 -0.05
0.3625 0.0 -0.05
0.375 0.0 -0.05
0.3875 0.0 -0.05
0.4 0.0 -0.05
0.4125 0.0 -0.05
0.425 0.0 -0.05
0.4375 0.0 -0.05
0.45 0.0 -0.05
0.4625 0.0 -0.05
0.475 0.0 -0.05
0.4875 0.0 -0.05
0.5 0.0 -0.05
0.5125 0.0 -0.05
0.525 0.0 -0.05
0.5375 0.0 -0.05
0.55 0.0 -0.05
0.5625 0.0 -0.05
0.575 0.0 -0.05
0.5875 0.0 -0.05
0.6 0.0 -0.05
0.0 0.0125 -0.05
0.0125 0.0125 -0.05
0.025 0.0125 -0.05
0.0375 0.0125 -0.05
0.05 0.0125 -0.05
0.0625 0.0125 -0.05
0.075 0.0125 -0.05
0.0875 0.0125 -0.05
0.1 0.0125 -0.05
0.1125 0.0125 -0.05
0.125 0.0125 -0.05
0.1375 0.0125 -0.05
0.15 0.0125 -0.05
0.1625 0.0125 -0.05
0.175 0.0125 -0.05
0.1875 0.0125 -0.05
0.2 0.0125 -0.05
0.2125 0.0125 -0.05
0.225 0.0125 -0.05
0.2375 0.0125 -0.05
0.25 0.0125 -0.05
0.2625 0.0125 -0.05
0.275 0.0125 -0.05
0.2875 0.0125 -0.05
0.3 0.0125 -0.05
0.3125 0.0125 -0.05
0.325 0.0125 -0.05
0.3375 0.0125 -0.05
0.35 0.0125 -0.05
0.3625 0.0125 -0.05
0.375 0.0125 -0.05
0.3875 0.0125 -0.05
0.4 0.0125 -0.05
0.4125 0.0125 -0.05
0.425 0.0125 -0.05
0.4375 0.0125 -0.05
0.45 0.0125 -0.05
0.4625 0.0125 -0.05
0.475 0.0125 -0.05
0.4875 0.0125 -0.05
0.5 0.0125 -0.05
0.5125 0.0125 -0.05
0.525 0.0125 -0.05
0.5375 0.0125 -0.05
0.55 0.0125 -0.05
0.5625 0.0125 -0.05
0.575 0.0125 -0.05
0.5875 0.0125 -0.05
0.6 0.0125 -0.05
0.0 0.025 -0.05
0.0125 0.025 -0.05
0.025 0.025 -0.05
0.0375 0.025 -0.05
0.05 0.025 -0.05
0.0625 0.025 -0.05
0.075 0.025 -0.05
0.0875 0.025 -0.05
0.1 0.025 -0.05
0.1125 0.025 -0.05
0.125 0.025 -0.05
0.1375 0.025 -0.05
0.15 0.025 -0.05
0.1625 0.025 -0.05
0.175 0.025 -0.05
0.1875 0.025 -0.05
0.2 0.025 -0.05
0.2125 0.025 -0.05
0.225 0.025 -0.05
0.2375 0.025 -0.05
0.25 0.025 -0.05
0.2625 0.025 -0.05
0.275 0.025 -0.05
0.2875 0.025 -0.05
0.3 0.025 -0.05
0.3125 0.025 -0.05
0.325 0.025 -0.05
0.3375 0.025 -0.05
0.35 0.025 -0.05
0.3625 0.025 -0.05
0.375 0.025 -0.05
0.3875 0.025 -0.05
0.4 0.025 -0.05
0.4125 0.025 -0.05
0.425 0.025 -0.05
0.4375 0.025 -0.05
0.45 0.025 -0.05
0.4625 0.025 -0.05
0.475 0.025 -0.05
0.4875 0.025 -0.05
0.5 0.025 -0.05
0.5125 0.025 -0.05
0.525 0.025 -0.05
0.5375 0.025 -0.05
0.55 0.025 -0.05
0.5625 0.025 -0.05
0.575 0.025 -0.05
0.5875 0.025 -0.05
0.6 0.025 -0.05
0.0 0.0375 -0.05
0.0125 0.0375 -0.05
0.025 0.0375 -0.05
0.0375 0.0375 -0.05
0.05 0.0375 -0.05
0.0625 0.0375 -0.05
0.075 0.0375 -0.05
0.0875 0.0375 -0.05
0.1 0.0375 -0.05
0.1125 0.0375 -0.05
0.125 0.0375 -0.05
0.1375 0.0375 -0.05
0.15 0.0375 -0.05
0.1625 0.0375 -0.05
0.175 0.0375 -0.05
0.1875 0.0375 -0.05
0.2 0.0375 -0.05
0.2125 0.0375 -0.05
0.225 0.0375 -0.05
0.2375 0.0375 -0.05
0.25 0.0375 -0.05
0.2625 0.0375 -0.05
0.275 0.0375 -0.05
0.2875 0.0375 -0.05
0.3 0.0375 -0.05
0.3125 0.0375 -0.05
0.325 0.0375 -0.05
0.3375 0.0375 -0.05
0.35 0.0375 -0.05
0.3625 0.0375 -0.05
0.375 0.0375 -0.05
0.3875 0.0375 -0.05
0.4 0.0375 -0.05
0.4125 0.0375 -0.05
0.425 0.0375 -0.05
0.4375 0.0375 -0.05
0.45 0.0375 -0.05
0.4625 0.0375 -0.05
0.475 0.0375 -0.05
0.4875 0.0375 -0.05
0.5 0.0375 -0.05
0.5125 0.0375 -0.05
0.525 0.0375 -0.05
0.5375 0.0375 -0.05
0.55 0.0375 -0.05
0.5625 0.0375 -0.05
0.575 0.0375 -0.05
0.5875 0.0375 -0.05
0.6 0.0375 -0.05
0.0 0.05 -0.05
0.0125 0.05 -0.05
0.025 0.05 -0.05
0.0375 0.05 -0.05
0.05 0.05 -0.05
0.0625 0.05 -0.05
0.075 0.05 -0.05
0.0875 0.05 -0.05
0.1 0.05 -0.05
0.1125 0.05 -0.05
0.125 0.05 -0.05
0.1375 0.05 -0.05
0.15 0.05 -0.05
0.1625 0.05 -0.05
0.175 0.05 -0.05
0.1875 0.05 -0.05
0.2 0.05 -0.05
0.2125 0.05 -0.05
0.225 0.05 -0.05
0.2375 0.05 -0.05
0.25 0.05 -0.05
0.2625 0.05 -0.05
0.275 0.05 -0.05
0.2875 0.05 -0.05
0.3 0.05 -0.05
0.3125 0.05 -0.05
0.325 0.05 -0.05
0.3375 0.05 -0.05
0.35 0.05 -0.05
0.3625 0.05 -0.05
0.375 0.05 -0.05
0.3875 0.05 -0.05
0.4 0.05 -0.05
0.4125 0.05 -0.05
0.425 0.05 -0.05
0.4375 0.05 -0.05
0.45 0.05 -0.05
0.4625 0.05 -0.05
0.475 0.05 -0.05
0.4875 0.05 -0.05
0.5 0.05 -0.05
0.5125 0.05 -0.05
0.525 0.05 -0.05
0.5375 0.05 -0.05
0.55 0.05 -0.05
0.5625 0.05 -0.05
0.575 0.05 -0.05
0.5875 0.05 -0.05
0.6 0.05 -0.05
0.0 0.0625 -0.05
0.0125 0.0625 -0.05
0.025 0.0625 -0.05
0.0375 0.0625 -0.05
0.05 0.0625 -0.05
0.0625 0.0625 -0.05
0.075 0.0625 -0.05
0.0875 0.0625 -0.05
0.1 0.0625 -0.05
0.1125 0.0625 -0.05
0.125 0.0625 -0.05
0.1375 0.0625 -0.05
0.15 0.0625 -0.05
0.1625 0.0625 -0.05
0.175 0.0625 -0.05
0.1875 0.0625 -0.05
0.2 0.0625 -0.05
0.2125 0.0625 -0.05
0.225 0.0625 -0.05
0.2375 0.0625 -0.05
0.25 0.0625 -0.05
0.2625 0.0625 -0.05
0.275 0.0625 -0.05
0.2875 0.0625 -0.05
0.3 0.0625 -0.05
0.3125 0.0625 -0.05
0.325 0.0625 -0.05
0.3375 0.0625 -0.05
0.35 0.0625 -0.05
0.3625 0.0625 -0.05
0.375 0.0625 -0.05
0.3875 0.0625 -0.05
0.4 0.0625 -0.05
0.4125 0.0625 -0.05
0.425 0.0625 -0.05
0.4375 0.0625 -0.05
0.45 0.0625 -0.05
0.4625 0.0625 -0.05
0.475 0.0625 -0.05
0.4875 0.0625 -0.05
0.5 0.0625 -0.05
0.5125 0.0625 -0.05
0.525 0.0625 -0.05
0.5375 0.0625 -0.05
0.55 0.0625 -0.05
0.5625 0.0625 -0.05
0.575 0.0625 -0.05
0.5875 0.0625 -0.05
0.6 0.0625 -0.05
0.0 0.075 -0.05
0.0125 0.075 -0.05
0.025 0.075 -0.05
0.0375 0.075 -0.05
0.05 0.075 -0.05
0.0625 0.075 -0.05
0.075 0.075 -0.05
0.0875 0.075 -0.05
0.1 0.075 -0.05
0.1125 0.075 -0.05
0.125 0.075 -0.05
0.1375 0.075 -0.05
0.15 0.075 -0.05
0.1625 0.075 -0.05
0.175 0.075 -0.05
0.1875 0.075 -0.05
0.2 0.075 -0.05
0.2125 0.075 -0.05
0.225 0.075 -0.05
0.2375 0.075 -0.05
0.25 0.075 -0.05
0.2625 0.075 -0.05
0.275 0.075 -0.05
0.2875 0.075 -0.05
0.3 0.075 -0.05
0.3125 0.075 -0.05
0.325 0.075 -0.05
0.3375 0.075 -0.05
0.35 0.075 -0.05
0.3625 0.075 -0.05
0.375 0.075 -0.05
0.3875 0.075 -0.05
0.4 0.075 -0.05
0.4125 0.075 -0.05
0.425 0.075 -0.05
0.4375 0.075 -0.05
0.45 0.075 -0.05
0.4625 0.075 -0.05
0.475 0.075 -0.05
0.4875 0.075 -0.05
0.5 0.075 -0.05
0.5125 0.075 -0.05
0.525 0.075 -0.05
0.5375 0.075 -0.05
0.55 0.075 -0.05
0.5625 0.075 -0.05
0.575 0.075 -0.05
0.5875 0.075 -0.05
0.6 0.075 -0.05
0.0 0.0875 -0.05
0.0125 0.0875 -0.05
0.025 0.0875 -0.05
0.0375 0.0875 -0.05
0.05 0.0875 -0.05
0.0625 0.0875 -0.05
0.075 0.0875 -0.05
0.0875 0.0875 -0.05
0.1 0.0875 -0.05
0.1125 0.0875 -0.05
0.125 0.0875 -0.05
0.1375 0.0875 -0.05
0.15 0.0875 -0.05
0.1625 0.0875 -0.05
0.175 0.0875 -0.05
0.1875 0.0875 -0.05
0.2 0.0875 -0.05
0.2125 0.0875 -0.05
0.225 0.0875 -0.05
0.2375 0.0875 -0.05
0.25 0.0875 -0.05
0.2625 0.0875 -0.05
0.275 0.0875 -0.05
0.2875 0.0875 -0.05
0.3 0.0875 -0.05
0.3125 0.0875 -0.05
0.325 0.0875 -0.05
0.3375 0.0875 -0.05
0.35 0.0875 -0.05
0.3625 0.0875 -0.05
0.375 0.0875 -0.05
0.3875 0.0875 -0.05
0.4 0.0875 -0.05
0.4125 0.0875 -0.05
0.425 0.0875 -0.05
0.4375 0.0875 -0.05
0.45 0.0875 -0.05
0.4625 0.0875 -0.05
0.475 0.0875 -0.05
0.4875 0.0875 -0.05
0.5 0.0875 -0.05
0.5125 0.0875 -0.05
0.525 0.0875 -0.05
0.5375 0.0875 -0.05
0.55 0.0875 -0.05
0.5625 0.0875 -0.05
0.575 0.0875 -0.05
0.5875 0.0875 -0.05
0.6 0.0875 -0.05
0.0 0.1 -0.05
0.0125 0.1 -0.05
0.025 0.1 -0.05
0.0375 0.1 -0.05
0.05 0.1 -0.05
0.0625 0.1 -0.05
0.075 0.1 -0.05
0.0875 0.1 -0.05
0.1 0.1 -0.05
0.1125 0.1 -0.05
0.125 0.1 -0.05
0.1375 0.1 -0.05
0.15 0.1 -0.05
0.1625 0.1 -0.05
0.175 0.1 -0.05
0.1875 0.1 -0.05
0.2 0.1 -0.05
0.2125 0.1 -0.05
0.225 0.1 -0.05
0.2375 0.1 -0.05
0.25 0.1 -0.05
0.2625 0.1 -0.05
0.275 0.1 -0.05
0.2875 0.1 -0.05
0.3 0.1 -0.05
0.3125 0.1 -0.05
0.325 0.1 -0.05
0.3375 0.1 -0.05
0.35 0.1 -0.05
0.3625 0.1 -0.05
0.375 0.1 -0.05
0.3875 0.1 -0.05
0.4 0.1 -0.05
0.4125 0.1 -0.05
0.425 0.1 -0.05
0.4375 0.1 -0.05
0.45 0.1 -0.05
0.4625 0.1 -0.05
0.475 0.1 -0.05
0.4875 0.1 -0.05
0.5 0.1 -0.05
0.5125 0.1 -0.05
0.525 0.1 -0.05
0.5375 0.1 -0.05
0.55 0.1 -0.05
0.5625 0.1 -0.05
0.575 0.1 -0.05
0.5875 0.1 -0.05
0.6 0.1 -0.05
0.0 0.1125 -0.05
0.0125 0.1125 -0.05
0.025 0.1125 -0.05
0.0375 0.1125 -0.05
0.05 0.1125 -0.05
0.0625 0.1125 -0.05
0.075 0.1125 -0.05
0.0875 0.1125 -0.05
0.1 0.1125 -0.05
0.1125 0.1125 -0.05
0.125 0.1125 -0.05
0.1375 0.1125 -0.05
0.15 0.1125 -0.05
0.1625 0.1125 -0.05
0.175 0.1125 -0.05
0.1875 0.1125 -0.05
0.2 0.1125 -0.05
0.2125 0.1125 -0.05
0.225 0.1125 -0.05
0.2375 0.1125 -0.05
0.25 0.1125 -0.05
0.2625 0.1125 -0.05
0.275 0.1125 -0.05
0.2875 0.1125 -0.05
0.3 0.1125 -0.05
0.3125 0.1125 -0.05
0.325 0.1125 -0.05
0.3375 0.1125 -0.05
0.35 0.1125 -0.05
0.3625 0.1125 -0.05
0.375 0.1125 -0.05
0.3875 0.1125 -0.05
0.4 0.1125 -0.05
0.4125 0.1125 -0.05
0.425 0.1125 -0.05
0.4375 0.1125 -0.05
0.45 0.1125 -0.05
0.4625 0.1125 -0.05
0.475 0.1125 -0.05
0.4875 0.1125 -0.05
0.5 0.1125 -0.05
0.5125 0.1125 -0.05
0.525 0.1125 -0.05
0.5375 0.1125 -0.05
0.55 0.1125 -0.05
0.5625 0.1125 -0.05
0.575 0.1125 -0.05
0.5875 0.1125 -0.05
0.6 0.1125 -0.05
0.0 0.125 -0.05
0.0125 0.125 -0.05
0.025 0.125 -0.05
0.0375 0.125 -0.05
0.05 0.125 -0.05
0.0625 0.125 -0.05
0.075 0.125 -0.05
0.0875 0.125 -0.05
0.1 0.125 -0.05
0.1125 0.125 -0.05
0.125 0.125 -0.05
0.1375 0.125 -0.05
0.15 0.125 -0.05
0.1625 0.125 -0.05
0.175 0.125 -0.05
0.1875 0.125 -0.05
0.2 0.125 -0.05
0.2125 0.125 -0.05
0.225 0.125 -0.05
0.2375 0.125 -0.05
0.25 0.125 -0.05
0.2625 0.125 -0.05
0.275 0.125 -0.05
0.2875 0.125 -0.05
0.3 0.125 -0.05
0.3125 0.125 -0.05
0.325 0.125 -0.05
0.3375 0.125 -0.05
0.35 0.125 -0.05
0.3625 0.125 -0.05
0.375 0.125 -0.05
0.3875 0.125 -0.05
0.4 0.125 -0.05
0.4125 0.125 -0.05
0.425 0.125 -0.05
0.4375 0.125 -0.05
0.45 0.125 -0.05
0.4625 0.125 -0.05
0.475 0.125 -0.05
0.4875 0.125 -0.05
0.5 0.125 -0.05
0.5125 0.125 -0.05
0.525 0.125 -0.05
0.5375 0.125 -0.05
0.55 0.125 -0.05
0.5625 0.125 -0.05
0.575 0.125 -0.05
0.5875 0.125 -0.05
0.6 0.125 -0.05
0.0 0.1375 -0.05
0.0125 0.1375 -0.05
0.025 0.1375 -0.05
0.0375 0.1375 -0.05
0.05 0.1375 -0.05
0.0625 0.1375 -0.05
0.075 0.1375 -0.05
0.0875 0.1375 -0.05
[...]
CELL_DATA 16128
SCALARS P float 1
LOOKUP_TABLE default
100000.0000000317
99999.99999991177
100000.00000024168
99999.99999933137
100000.00000184131
99999.99999492065
100000.00001400022
99999.9999614099
100000.00010633873
99999.99970702427
100000.00080699631
99999.99777765121
100000.00611848058
99999.983159412
100000.04633841754
99999.87253801002
100000.3504726895
99999.03677207592
100002.64527691901
99992.75376313194
100019.46726101503
99956.50434838924
99870.32016184012
107916.92202356725
208205.90626486507
472220.8231758635
785664.3020176969
975106.1713287935
1.0355492957380626e6
1.05381114188558e6
1.0659923580082054e6
1.0773475191040211e6
1.0882598244524281e6
1.098722040086938e6
1.1087185372211942e6
1.1182370673183585e6
1.1272633118040815e6
1.135778716736372e6
1.1437566709448681e6
1.1511691455498892e6
1.157966182563697e6
1.1641375397688772e6
1.1695348232044175e6
1.174402181596731e6
1.177814590652025e6
1.1823166486844372e6
1.1801541444682588e6
1.1941462839193267e6
100000.00000003068
99999.99999991454
100000.00000023429
99999.99999935225
100000.00000178431
99999.99999507835
100000.00001356722
99999.99996260046
100000.00010307302
99999.99971596996
100000.0007825339
99999.99784441225
100000.00593672242
99999.98365275294
100000.04500464
99999.87612460704
100000.34090196101
99999.0620193336
100002.57987692892
99992.9178597753
100019.08666938078
99957.04659510331
99876.06858439647
107648.23479349345
206921.203321575
471122.4804470627
787594.8414896472
980801.4377864528
1.0433197780667415e6
1.0624571392852785e6
1.0750920653363797e6
1.0867354768776873e6
1.0978696510240273e6
1.1085340623667815e6
1.1187343098151966e6
1.128466243782452e6
1.1377169085118296e6
1.146465502495067e6
1.1546809725700112e6
1.162329135655914e6
1.1693525103992324e6
1.1757315839584689e6
1.181308226164058e6
1.1863143131687422e6
1.1898152773270672e6
1.1943547287960441e6
1.1921163170825494e6
1.2063132326475214e6
100000.00000002822
99999.99999992107
100000.00000021659
99999.99999940107
100000.00000164958
99999.99999544909
100000.00001254618
99999.99996540915
100000.00009535541
99999.99973715354
100000.00072446422
99999.99800336821
100000.00550229856
99999.98483791492
100000.04177776219
99999.884891453
100000.31713937358
99999.126276235
100002.40651685992
99993.38414245794
100017.85387677625
99959.7928733308
99882.89104285363
107046.3226228337
203221.0218711104
464160.3349790344
780568.6856454088
976039.5041614933
1.03985040974142e6
1.0591264670337546e6
1.07163758329214e6
1.0831242103407478e6
1.0940911173173622e6
1.1045771145538199e6
1.1145870791390494e6
1.1241175172433255e6
1.1331571103656602e6
1.1416873359649228e6
1.1496800562288952e6
1.1571043793429008e6
1.1639074486832554e6
1.1700734321630895e6
1.1754539510023512e6
1.1802778829305223e6
1.1836434678222763e6
1.1880451192127736e6
1.1857393578543616e6
1.2001283807330106e6
100000.00000002481
99999.99999993028
100000.0000001911
99999.99999947209
100000.00000145397
99999.9999959896
100000.00001105487
99999.99996952152
100000.00008402481
99999.9997683487
100000.0006386546
99999.99823919235
100000.00485483905
99999.98661369529
100000.03691255211
99999.8982065725
100000.28073697569
99999.22569921108
100002.13525394023
99994.12252248314
100015.8783768604
99964.27211869668
99893.21707529895
106153.61416626544
197460.62953510327
453389.20954545436
770538.5913213937
970837.5509637536
1.0375769570358176e6
1.0575380087222902e6
1.0701583004020911e6
1.0816566713876952e6
1.092608390696402e6
1.10306723959544e6
1.113045726665878e6
1.1225457136415304e6
1.1315599503260618e6
1.1400730987037462e6
1.1480596488549742e6
1.1554904001851124e6
1.1623141993133535e6
1.1685135323950478e6
1.1739431868450984e6
1.1788164641147703e6
1.182254550232429e6
1.186685880400437e6
1.18440168184023e6
1.1991652553468153e6
100000.00000002066
99999.99999994172
100000.00000015913
99999.99999956047
100000.0000012096
99999.99999666605
100000.00000918352
99999.99997469566
100000.00006972492
99999.99980785178
100000.00052958612
99999.9985401671
100000.00402478293
99999.9889014954
100000.03061099703
99999.91555191539
100000.23302731132
99999.35682676056
100001.77523109356
99995.1084730278
100013.22473331433
99970.35861239191
99906.49184514846
105063.1552682509
189881.62103185014
438827.3310715627
756725.1958380229
963503.6278952585
1.0342207192459629e6
1.0550016488961112e6
1.0676277557468202e6
1.0790185355073255e6
1.0898419084016713e6
1.100162408975648e6
1.109996056285733e6
1.119347600378394e6
1.1282125289126278e6
1.1365781046496327e6
1.1444214447241793e6
1.1517154884387904e6
1.158411950669794e6
1.1644930602323315e6
1.1698203723494653e6
1.174593514733636e6
1.1779681480811075e6
1.1823061107107678e6
1.1799529844790811e6
1.1951272780864474e6
100000.0000000164
99999.9999999549
100000.0000001231
99999.99999966058
100000.0000009323
99999.99999743592
100000.00000704904
99999.99998061446
100000.00005331659
99999.99985333014
100000.00040356326
99999.9988893
100000.00305780722
99999.99157889142
100000.02320015569
99999.93605705627
100000.17631537063
99999.51359956709
100001.34218651321
99996.30202979418
100009.98807702599
99977.91359972964
99921.01796882256
103886.77732817625
180803.9057665942
420659.95998345927
739013.0986072721
953981.3196903632
1.0300348431846723e6
1.0519857857743318e6
1.0646428325797452e6
1.0759052484178846e6
1.0865760502935408e6
1.0967343573233315e6
1.106400130184183e6
1.1155815229144576e6
1.1242774412195694e6
1.1324784987229726e6
1.1401652055262502e6
1.1473133068588523e6
1.153877961953926e6
1.1598412168231937e6
1.1650715910617611e6
1.1697535293937344e6
1.1730777475263004e6
1.1773380309809877e6
1.1749155566169273e6
1.1906215056626282e6
100000.0000000115
99999.99999996857
100000.0000000855
99999.9999997655
100000.0000006408
99999.99999824616
100000.0000047973
99999.99998687337
100000.00003591769
99999.99990169941
100000.0002690885
99999.99926318147
100000.00201825854
99999.99446935512
100000.01516316323
99999.95840371707
100000.11418416265
99999.68632844859
100000.86214411506
99997.63401382782
100006.34622143909
99986.58958413138
99934.61002872155
102738.36687380339
170613.79349604336
399140.6896679255
717216.6816723509
941922.0890147836
1.0248181705914607e6
1.0483700894309226e6
1.0610832660145294e6
1.072176540078514e6
1.082645946686127e6
1.0925906707998654e6
1.1020343828788367e6
1.1109882473064286e6
1.1194544203421832e6
1.1274269004308556e6
1.1348898172471079e6
1.1418221447822216e6
1.1481831884049692e6
1.153955804185655e6
1.1590171349815542e6
1.1635384907119488e6
1.1667494055479108e6
1.1708814302224421e6
1.1683368441515795e6
1.184683893026688e6
100000.00000000671
99999.99999998203
100000.00000004903
99999.99999986796
100000.00000035671
99999.99999903717
100000.00000259506
99999.99999300629
100000.0000188346
99999.9999493013
100000.00013640388
99999.99963315432
100000.00098627788
99999.99734894223
100000.00712516505
99999.98084903015
100000.05148501386
99999.86153498822
100000.3724616395
99999.00127876013
100002.57828571236
99995.75277932039
99945.21737415696
101718.93372341544
159755.54005598632
374613.8406357141
691174.3012792519
926947.8135455933
1.0183956961055761e6
1.0441252828113568e6
1.0569583794539927e6
1.0678522540560048e6
1.0780766323146943e6
1.0877600852024683e6
1.0969303386565521e6
1.1056012680783062e6
1.1137781129567097e6
1.1214582782025866e6
1.128629750185654e6
1.1352752476692942e6
1.1413590670603982e6
1.1468662441652971e6
1.151684342953191e6
1.1559744887625563e6
1.1590077675807606e6
1.1629616884324942e6
1.160237002676887e6
1.1773692896885257e6
100000.00000000256
99999.99999999374
100000.00000001595
99999.99999995982
100000.00000010114
99999.99999974959
100000.0000006117
99999.99999853363
100000.00000342465
99999.99999228808
100000.00001641923
99999.99996826428
100000.00004971377
99999.99996827487
99999.99979418948
100000.00138265699
99999.99392573393
100000.02301565383
99999.91911953539
100000.27352560317
99999.04862222704
100004.49737262902
99951.70216874027
100902.58825051741
148716.82684119625
347530.852385245
660764.6432154074
908612.1784804548
1.010530580655197e6
1.0391961526016521e6
1.0522570230265697e6
1.0629260487431071e6
1.0728590321196364e6
1.0822284746403187e6
1.0910669128484232e6
1.0993903116847083e6
1.107206336912311e6
1.114515249513444e6
1.121308500968751e6
1.1275724285239212e6
1.133276497324825e6
1.1384087693372588e6
1.1428684660378753e6
1.1468098905663285e6
1.1495488903819993e6
1.1532221115574127e6
1.1502074506720721e6
1.1682881432357924e6
99999.99999999901
100000.00000000358
99999.99999998871
100000.00000003498
99999.9999998919
100000.00000033085
99999.99999899577
100000.00000302981
99999.99999090642
100000.00002716835
99999.99991915334
100000.00023973479
99999.99929132438
100000.0020890835
99999.9938569891
100000.01802313114
99999.94722904827
100000.15422731079
99999.5499741677
100001.31231922076
99996.15449451379
100011.76411525781
99954.45713961219
100325.92377847085
138005.49739153808
318467.43899338285
625944.3939419672
886408.5668336621
1.0009164305299133e6
1.0335116243204467e6
1.0469725417526212e6
1.057400682439811e6
1.066994789050997e6
1.0759937637681281e6
1.0844364988728822e6
1.0923401217831324e6
1.0997135316148105e6
1.106558645743633e6
1.1128692836175484e6
1.1186346240412942e6
1.1238290338373373e6
1.1284445485751496e6
1.1323940523879824e6
1.1358308065082887e6
1.138121244610709e6
1.1413798644709352e6
1.1379353324511498e6
1.1571859161797056e6
99999.9999999963
100000.00000001068
99999.99999996915
100000.00000008932
99999.99999974207
100000.00000074442
99999.99999785227
100000.00000619241
99999.999982154
100000.00005140787
99999.99985196293
100000.0004261627
99999.99877349875
100000.00352913621
99999.98984691942
100000.02920631503
99999.91599101727
100000.24163911618
99999.30493221949
100001.99981517444
99994.24312466325
100016.56189027871
99955.4455446273
99983.95248998344
128115.1201235089
288134.41476324573
586794.1791490301
859783.9070707773
989155.4828505043
1.0269708033643069e6
1.0410966370187629e6
1.0512830978676428e6
1.0604905165012195e6
1.0690587461866601e6
1.0770359526079155e6
1.0844390965923122e6
1.0912762770571837e6
1.0975486654195164e6
1.1032496636279991e6
1.108368124795371e6
1.1128796153612183e6
1.1167761670969566e6
1.1199794708691866e6
1.1226391752056351e6
1.1241698562387142e6
1.126686176643379e6
1.1224540029838039e6
1.143051351948462e6
99999.99999999485
100000.00000001489
99999.99999995746
100000.00000012091
99999.99999965672
100000.00000097638
99999.99999722322
100000.00000789783
99999.9999775313
100000.00006393465
99999.9998180245
100000.00051809984
99999.99852444591
100000.00420390767
99999.988018113
100000.0341656394
99999.90253121025
100000.27821089627
99999.20542943967
100002.27053177982
99993.51623719101
100018.24924549625
99957.44629688142
99835.05959057901
119479.32064260937
257376.9323470728
543571.3066161628
828168.4689165999
974738.1852579442
1.0194276114802398e6
1.0346161522400982e6
1.0445853720225364e6
1.0533603320369292e6
1.0614348369223159e6
1.0688717436263906e6
1.0756862275901504e6
1.0818826912201683e6
1.0874579985596936e6
1.0924009896356305e6
1.096695721911138e6
1.1003147074172217e6
1.103247329204097e6
1.10542390690174e6
1.1070012616804529e6
1.1074556167722149e6
1.1089436813209748e6
1.1036397214159828e6
1.1260069911574572e6
99999.99999999403
100000.0000000165
99999.99999995362
100000.00000013069
99999.99999963195
100000.00000103647
99999.99999708051
100000.0000082262
99999.99997681122
100000.00006538606
99999.99981555605
100000.0005204997
99999.99853049089
100000.00415083709
99999.98826911765
100000.0331725185
99999.90613524357
100000.26578365103
99999.24685886705
100002.13549379277
99993.95172107636
100016.79838459873
99962.86590260839
99815.01546195378
112418.84951163459
227156.41805796386
496764.3628658851
791025.3386144396
957025.555199159
1.0106694803455643e6
1.0275069057934956e6
1.0373240202228181e6
1.0456267195028963e6
1.053143705295985e6
1.0599623020948216e6
1.0660941030136666e6
1.0715356174373187e6
1.0762735579428833e6
1.0802841206530696e6
1.083535134345727e6
1.0859792735280057e6
1.0875776455311803e6
1.0882322191675398e6
1.0880466029801131e6
1.086480621376696e6
1.0856874862519898e6
1.0777095152693132e6
1.1012744874396173e6
99999.99999999435
100000.0000000158
99999.9999999559
100000.000000123
99999.99999965724
100000.0000009563
99999.99999733189
100000.00000744409
99999.99997922542
100000.00005798193
99999.99983814234
100000.00045190625
99999.99873802137
100000.00352495002
99999.99015162626
100000.0275233654
99999.92305473408
100000.21519168674
99999.39792857761
100001.68490090362
99995.29320797435
100012.85656983903
99972.46188758184
99856.75667791431
107091.43339224457
198509.40069745076
447142.12588662613
747923.1317507683
935239.811238062
1.0003892245160989e6
1.0197240848782293e6
1.029518410021396e6
1.0373212950058118e6
1.0442192138671716e6
1.0503413609550332e6
1.0556945800580052e6
1.0602626204417234e6
1.0640152014243563e6
1.0669069337016062e6
1.0688783523946498e6
1.0698516040192354e6
1.0697510239831137e6
1.0684492445004378e6
1.0660396940889899e6
1.0620462926100718e6
1.0587476910184175e6
1.0481468318591212e6
1.0745454095099221e6
99999.99999999524
100000.00000001355
99999.99999996267
100000.00000010294
99999.99999971587
100000.00000078297
99999.99999784175
100000.00000594344
99999.99998363691
100000.00004502232
99999.99987619488
100000.0003402161
99999.99906577302
100000.00256326942
99999.99297343135
100000.01924228902
99999.9473634604
100000.14380715867
99999.6076571564
100001.0684347761
99997.10348147474
100007.63075657391
99984.81225506021
99908.84408557441
103460.22419108814
172477.59730632973
395786.42403849156
698633.2158868762
908471.6888986964
988149.5006274068
1.0111873674383318e6
1.0211873937463376e6
1.0284847645496046e6
1.0347084936439375e6
1.0400597499869115e6
1.0445410106140783e6
1.0481173459541489e6
1.0507316889215286e6
1.052301222646589e6
1.052713361932931e6
1.0518096216387548e6
1.049394145646979e6
1.0451426965728271e6
1.038804144595286e6
1.0293524095402283e6
1.0181826019442822e6
995863.1446291918
1.0138548721292532e6
99999.99999999609
100000.00000001052
99999.99999997148
100000.000000077
99999.9999997901
100000.00000056825
99999.99999846178
100000.00000415486
99999.99998879821
100000.00003012484
99999.99991920311
100000.00021601589
99999.99942457954
100000.00152621484
99999.99597249767
100000.01056357684
99999.97249700483
100000.07095742408
99999.81901722708
100000.45465688624
99998.88490454701
100002.5445129391
99996.9856286602
99945.25811465412
101298.36301828307
150004.70771704827
344095.7317483912
643248.221569918
875716.5827341722
973341.4889998726
1.0017587254431947e6
1.0123433181610827e6
1.0191659798841657e6
1.0246727213350505e6
1.0291877995926115e6
1.0327138779277361e6
1.0351926803885674e6
1.0365322354674657e6
1.0366000930073479e6
1.0352155657237076e6
1.0321286417865558e6
1.0270194216150349e6
1.0194212023863258e6
1.0089527805728185e6
994620.9919437204
978144.2940017594
950408.3965093137
973476.4582709746
99999.99999999719
100000.00000000717
99999.99999998078
100000.000000051
99999.99999986442
100000.00000035779
99999.9999990594
100000.00000245676
99999.99999362143
100000.00001642412
99999.99995812053
100000.00010546036
99999.99973867288
100000.00063373732
99999.99850888134
100000.00335360928
99999.99299812311
100000.01264303988
99999.98495869886
99999.98230258764
100000.2278680262
99998.78828968304
100005.9453007175
99963.07592870989
100240.21358243175
131801.3548076459
293744.4440036581
582310.9510833786
835954.4437521971
955143.434312295
991210.6215626968
1.0029819850118253e6
1.0094191772563846e6
1.0141860530875417e6
1.017814364778191e6
1.0203187883895837e6
1.0216147660361045e6
1.0215664120679456e6
1.019975945161844e6
1.0165639496609264e6
1.0109156937568994e6
1.0024190841287827e6
990043.9210259418
972211.1199231135
945231.2483419694
904206.4189389152
825633.5674542765
697263.6563753171
99999.99999999814
100000.00000000425
99999.99999998866
100000.00000002875
99999.99999992654
100000.00000018385
99999.99999954406
100000.00000110645
99999.99999738058
100000.00000597164
99999.99998714935
100000.00002495102
99999.99996161097
100000.00001748925
100000.00020889353
99999.99867468317
100000.00584165177
99999.9774967787
100000.08078674617
99999.72220207061
100000.92872184803
99996.94737295239
100009.95638899105
99971.31670493589
99872.57449440855
118197.28166811647
246583.46192668448
516931.2294586283
788286.5008928961
932490.0669679485
979182.2858049085
993066.7055234483
999298.9523590408
1.0033333665890032e6
1.0060454042835723e6
1.0074867490732165e6
1.0075492549411814e6
1.0060502412792828e6
1.0027276674922844e6
997199.709672537
988894.6459651028
976949.0231082494
959929.0386182492
935611.9040571554
899456.2291388052
845531.9491591566
754391.1973980608
617951.7391698572
99999.99999999901
100000.00000000201
99999.99999999462
100000.00000001231
99999.99999997119
100000.00000006215
99999.99999987434
100000.00000021256
99999.99999978999
99999.99999950799
100000.00000439474
99999.99997924709
100000.00008174844
99999.99970489918
100000.00101172911
99999.99664756165
100000.01084289567
99999.96555919336
100000.10787102042
99999.6659020913
100001.02540287995
99996.87907550385
100009.27344773119
99978.98818781265
99836.35843343935
109029.83795736951
204473.27817210622
448857.14766168874
732133.1297103473
904070.4652573975
965122.2089946326
982503.3950367864
988851.4997148126
992205.4062997751
993998.6008231696
994366.2219260645
993185.4487970844
990237.58289331
985204.3273043797
977627.3911185765
966830.1126598517
951813.2864875268
930995.6923840865
902055.4908072294
860756.4357158619
802168.7889883289
713237.9040872231
592489.0719686876
99999.99999999978
100000.00000000029
99999.99999999857
100000.00000000208
99999.999999998
99999.99999999246
100000.00000005492
99999.99999975093
100000.00000095279
99999.99999663529
100000.00001130026
99999.99996329326
100000.00011634918
99999.99963806433
100000.00110901745
99999.99664441314
100000.01004293672
99999.97023423914
100000.08742984023
99999.74539691591
100000.73502906662
99997.90132639525
100005.77102986634
99988.94125288876
99895.90206857258
103638.27720044601
169048.95918765652
380463.0818232852
667482.8349562882
868380.8997286096
948218.4283010836
971102.9464025239
978100.6358684887
980891.3369410891
981795.6302672819
981110.4290383395
978720.0899112041
974382.8410438847
967744.7068683646
958305.0363053115
945345.4874571409
927843.5714252597
904268.8008586578
872516.5374806758
829117.3341023601
770520.4557340479
688740.3958109574
585367.6407618839
99999.99999999993
99999.99999999985
100000.00000000047
99999.99999999718
100000.00000001007
99999.99999996378
100000.00000011994
99999.99999961237
100000.00000121332
99999.9999962745
100000.00001123772
99999.99996659084
100000.00009802048
99999.9997159121
100000.00081359132
99999.99769799854
100000.0064304064
99999.98229022004
100000.04797988966
99999.87257984256
100000.3297264302
99999.17983953172
100001.83475335405
99998.63462974057
99946.87160594096
101009.65870297479
141427.32157820684
314620.40842678404
595161.4439402248
823868.8739107846
927327.5406841369
958527.4449243799
967026.8796672435
969469.1106377363
969553.9253130353
967867.1131395051
964337.6895491517
958717.2107910786
950638.7410183235
939593.5070394768
924875.483769052
905520.2150702205
880163.4635136221
847049.1759067352
803547.0923962083
747292.4209729423
673713.2568703558
585192.609710258
100000.00000000019
99999.99999999967
100000.00000000124
99999.99999999591
100000.00000001247
99999.99999996125
100000.00000011518
99999.99999966034
100000.00000098272
99999.99999719289
100000.0000079012
99999.9999780826
100000.00005982438
99999.9998396681
100000.00042032545
99999.998928544
100000.00262888461
99999.99390621606
100000.01282935476
99999.9780015512
100000.01626797908
100000.10235288566
99999.1996195854
100004.58041010764
99971.86839082421
100048.38938969276
121902.72513703616
254426.65927402826
517057.72621225583
769201.9977636983
900927.6264932404
944217.8843994276
955536.8757869785
957993.0252223358
957377.9726304904
954770.4839990856
950199.501812158
943433.0224535953
934111.5731627757