# vtk DataFile Version 2.0
JuliaCFD
ASCII
DATASET UNSTRUCTURED_GRID

POINTS 32898 float
0.0 0.0 -0.05
0.0125 0.0 -0.05
0.025 0.0 -0.05
0.0375 0.0 -0.05
0.05 0.0 -0.05
0.0625 0.0 -0.05
0.075 0.0 -0.05
0.0875 0.0 -0.05
0.1 0.0 -0.05
0.1125 0.0 -0.05
0.125 0.0 -0.05
0.1375 0.0 -0.05
0.15 0.0 -0.05
0.1625 0.0 -0.05
0.175 0.0 -0.05
0.1875 0.0 -0.05
0.2 0.0 -0.05
0.2125 0.0 -0.05
0.225 0.0 -0.05
0.2375 0.0 -0.05
0.25 0.0 -0.05
0.2625 0.0 -0.05
0.275 0.0 -0.05
0.2875 0.0 -0.05
0.3 0.0 -0.05
0.3125 0.0 -0.05
0.325 0.0 -0.05
0.3375 0.0 -0.05
0.35 0.0 -0.05
0.3625 0.0 -0.05
0.375 0.0 -0.05
0.3875 0.0 -0.05
0.4 0.0 -0.05
0.4125 0.0 -0.05
0.425 0.0 -0.05
0.4375 0.0 -0.05
0.45 0.0 -0.05
0.4625 0.0 -0.05
0.475 0.0 -0.05
0.4875 0.0 -0.05
0.5 0.0 -0.05
0.5125 0.0 -0.05
0.525 0.0 -0.05
0.5375 0.0 -0.05
0.55 0.0 -0.05
0.5625 0.0 -0.05
0.575 0.0 -0.05
0.5875 0.0 -0.05
0.6 0.0 -0.05
0.0 0.0125 -0.05
0.0125 0.0125 -0.05
0.025 0.0125 -0.05
0.0375 0.0125 -0.05
0.05 0.0125 -0.05
0.0625 0.0125 -0.05
0.075 0.0125 -0.05
0.0875 0.0125 -0.05
0.1 0.0125 -0.05
0.1125 0.0125 -0.05
0.125 0.0125 -0.05
0.1375 0.0125 -0.05
0.15 0.0125 -0.05
0.1625 0.0125 -0.05
0.175 0.0125 -0.05
0.1875 0.0125 -0.05
0.2 0.0125 -0.05
0.2125 0.0125 -0.05
0.225 0.0125 -0.05
0.2375 0.0125 -0.05
0.25 0.0125 -0.05
0.2625 0.0125 -0.05
0.275 0.0125 -0.05
0.2875 0.0125 -0.05
0.3 0.0125 -0.05
0.3125 0.0125 -0.05
0.325 0.0125 -0.05
0.3375 0.0125 -0.05
0.35 0.0125 -0.05
0.3625 0.0125 -0.05
0.375 0.0125 -0.05
0.3875 0.0125 -0.05
0.4 0.0125 -0.05
0.4125 0.0125 -0.05
0.425 0.0125 -0.05
0.4375 0.0125 -0.05
0.45 0.0125 -0.05
0.4625 0.0125 -0.05
0.475 0.0125 -0.05
0.4875 0.0125 -0.05
0.5 0.0125 -0.05
0.5125 0.0125 -0.05
0.525 0.0125 -0.05
0.5375 0.0125 -0.05
0.55 0.0125 -0.05
0.5625 0.0125 -0.05
0.575 0.0125 -0.05
0.5875 0.0125 -0.05
0.6 0.0125 -0.05
0.0 0.025 -0.05
0.0125 0.025 -0.05
0.025 0.025 -0.05
0.0375 0.025 -0.05
0.05 0.025 -0.05
0.0625 0.025 -0.05
0.075 0.025 -0.05
0.0875 0.025 -0.05
0.1 0.025 -0.05
0.1125 0.025 -0.05
0.125 0.025 -0.05
0.1375 0.025 -0.05
0.15 0.025 -0.05
0.1625 0.025 -0.05
0.175 0.025 -0.05
0.1875 0.025 -0.05
0.2 0.025 -0.05
0.2125 0.025 -0.05
0.225 0.025 -0.05
0.2375 0.025 -0.05
0.25 0.025 -0.05
0.2625 0.025 -0.05
0.275 0.025 -0.05
0.2875 0.025 -0.05
0.3 0.025 -0.05
0.3125 0.025 -0.05
0.325 0.025 -0.05
0.3375 0.025 -0.05
0.35 0.025 -0.05
0.3625 0.025 -0.05
0.375 0.025 -0.05
0.3875 0.025 -0.05
0.4 0.025 -0.05
0.4125 0.025 -0.05
0.425 0.025 -0.05
0.4375 0.025 -0.05
0.45 0.025 -0.05
0.4625 0.025 -0.05
0.475 0.025 -0.05
0.4875 0.025 -0.05
0.5 0.025 -0.05
0.5125 0.025 -0.05
0.525 0.025 -0.05
0.5375 0.025 -0.05
0.55 0.025 -0.05
0.5625 0.025 -0.05
0.575 0.025 -0.05
0.5875 0.025 -0.05
0.6 0.025 -0.05
0.0 0.0375 -0.05
0.0125 0.0375 -0.05
0.025 0.0375 -0.05
0.0375 0.0375 -0.05
0.05 0.0375 -0.05
0.0625 0.0375 -0.05
0.075 0.0375 -0.05
0.0875 0.0375 -0.05
0.1 0.0375 -0.05
0.1125 0.0375 -0.05
0.125 0.0375 -0.05
0.1375 0.0375 -0.05
0.15 0.0375 -0.05
0.1625 0.0375 -0.05
0.175 0.0375 -0.05
0.1875 0.0375 -0.05
0.2 0.0375 -0.05
0.2125 0.0375 -0.05
0.225 0.0375 -0.05
0.2375 0.0375 -0.05
0.25 0.0375 -0.05
0.2625 0.0375 -0.05
0.275 0.0375 -0.05
0.2875 0.0375 -0.05
0.3 0.0375 -0.05
0.3125 0.0375 -0.05
0.325 0.0375 -0.05
0.3375 0.0375 -0.05
0.35 0.0375 -0.05
0.3625 0.0375 -0.05
0.375 0.0375 -0.05
0.3875 0.0375 -0.05
0.4 0.0375 -0.05
0.4125 0.0375 -0.05
0.425 0.0375 -0.05
0.4375 0.0375 -0.05
0.45 0.0375 -0.05
0.4625 0.0375 -0.05
0.475 0.0375 -0.05
0.4875 0.0375 -0.05
0.5 0.0375 -0.05
0.5125 0.0375 -0.05
0.525 0.0375 -0.05
0.5375 0.0375 -0.05
0.55 0.0375 -0.05
0.5625 0.0375 -0.05
0.575 0.0375 -0.05
0.5875 0.0375 -0.05
0.6 0.0375 -0.05
0.0 0.05 -0.05
0.0125 0.05 -0.05
0.025 0.05 -0.05
0.0375 0.05 -0.05
0.05 0.05 -0.05
0.0625 0.05 -0.05
0.075 0.05 -0.05
0.0875 0.05 -0.05
0.1 0.05 -0.05
0.1125 0.05 -0.05
0.125 0.05 -0.05
0.1375 0.05 -0.05
0.15 0.05 -0.05
0.1625 0.05 -0.05
0.175 0.05 -0.05
0.1875 0.05 -0.05
0.2 0.05 -0.05
0.2125 0.05 -0.05
0.225 0.05 -0.05
0.2375 0.05 -0.05
0.25 0.05 -0.05
0.2625 0.05 -0.05
0.275 0.05 -0.05
0.2875 0.05 -0.05
0.3 0.05 -0.05
0.3125 0.05 -0.05
0.325 0.05 -0.05
0.3375 0.05 -0.05
0.35 0.05 -0.05
0.3625 0.05 -0.05
0.375 0.05 -0.05
0.3875 0.05 -0.05
0.4 0.05 -0.05
0.4125 0.05 -0.05
0.425 0.05 -0.05
0.4375 0.05 -0.05
0.45 0.05 -0.05
0.4625 0.05 -0.05
0.475 0.05 -0.05
0.4875 0.05 -0.05
0.5 0.05 -0.05
0.5125 0.05 -0.05
0.525 0.05 -0.05
0.5375 0.05 -0.05
0.55 0.05 -0.05
0.5625 0.05 -0.05
0.575 0.05 -0.05
0.5875 0.05 -0.05
0.6 0.05 -0.05
0.0 0.0625 -0.05
0.0125 0.0625 -0.05
0.025 0.0625 -0.05
0.0375 0.0625 -0.05
0.05 0.0625 -0.05
0.0625 0.0625 -0.05
0.075 0.0625 -0.05
0.0875 0.0625 -0.05
0.1 0.0625 -0.05
0.1125 0.0625 -0.05
0.125 0.0625 -0.05
0.1375 0.0625 -0.05
0.15 0.0625 -0.05
0.1625 0.0625 -0.05
0.175 0.0625 -0.05
0.1875 0.0625 -0.05
0.2 0.0625 -0.05
0.2125 0.0625 -0.05
0.225 0.0625 -0.05
0.2375 0.0625 -0.05
0.25 0.0625 -0.05
0.2625 0.0625 -0.05
0.275 0.0625 -0.05
0.2875 0.0625 -0.05
0.3 0.0625 -0.05
0.3125 0.0625 -0.05
0.325 0.0625 -0.05
0.3375 0.0625 -0.05
0.35 0.0625 -0.05
0.3625 0.0625 -0.05
0.375 0.0625 -0.05
0.3875 0.0625 -0.05
0.4 0.0625 -0.05
0.4125 0.0625 -0.05
0.425 0.0625 -0.05
0.4375 0.0625 -0.05
0.45 0.0625 -0.05
0.4625 0.0625 -0.05
0.475 0.0625 -0.05
0.4875 0.0625 -0.05
0.5 0.0625 -0.05
0.5125 0.0625 -0.05
0.525 0.0625 -0.05
0.5375 0.0625 -0.05
0.55 0.0625 -0.05
0.5625 0.0625 -0.05
0.575 0.0625 -0.05
0.5875 0.0625 -0.05
0.6 0.0625 -0.05
0.0 0.075 -0.05
0.0125 0.075 -0.05
0.025 0.075 -0.05
0.0375 0.075 -0.05
0.05 0.075 -0.05
0.0625 0.075 -0.05
0.075 0.075 -0.05
0.0875 0.075 -0.05
0.1 0.075 -0.05
0.1125 0.075 -0.05
0.125 0.075 -0.05
0.1375 0.075 -0.05
0.15 0.075 -0.05
0.1625 0.075 -0.05
0.175 0.075 -0.05
0.1875 0.075 -0.05
0.2 0.075 -0.05
0.2125 0.075 -0.05
0.225 0.075 -0.05
0.2375 0.075 -0.05
0.25 0.075 -0.05
0.2625 0.075 -0.05
0.275 0.075 -0.05
0.2875 0.075 -0.05
0.3 0.075 -0.05
0.3125 0.075 -0.05
0.325 0.075 -0.05
0.3375 0.075 -0.05
0.35 0.075 -0.05
0.3625 0.075 -0.05
0.375 0.075 -0.05
0.3875 0.075 -0.05
0.4 0.075 -0.05
0.4125 0.075 -0.05
0.425 0.075 -0.05
0.4375 0.075 -0.05
0.45 0.075 -0.05
0.4625 0.075 -0.05
0.475 0.075 -0.05
0.4875 0.075 -0.05
0.5 0.075 -0.05
0.5125 0.075 -0.05
0.525 0.075 -0.05
0.5375 0.075 -0.05
0.55 0.075 -0.05
0.5625 0.075 -0.05
0.575 0.075 -0.05
0.5875 0.075 -0.05
0.6 0.075 -0.05
0.0 0.0875 -0.05
0.0125 0.0875 -0.05
0.025 0.0875 -0.05
0.0375 0.0875 -0.05
0.05 0.0875 -0.05
0.0625 0.0875 -0.05
0.075 0.0875 -0.05
0.0875 0.0875 -0.05
0.1 0.0875 -0.05
0.1125 0.0875 -0.05
0.125 0.0875 -0.05
0.1375 0.0875 -0.05
0.15 0.0875 -0.05
0.1625 0.0875 -0.05
0.175 0.0875 -0.05
0.1875 0.0875 -0.05
0.2 0.0875 -0.05
0.2125 0.0875 -0.05
0.225 0.0875 -0.05
0.2375 0.0875 -0.05
0.25 0.0875 -0.05
0.2625 0.0875 -0.05
0.275 0.0875 -0.05
0.2875 0.0875 -0.05
0.3 0.0875 -0.05
0.3125 0.0875 -0.05
0.325 0.0875 -0.05
0.3375 0.0875 -0.05
0.35 0.0875 -0.05
0.3625 0.0875 -0.05
0.375 0.0875 -0.05
0.3875 0.0875 -0.05
0.4 0.0875 -0.05
0.4125 0.0875 -0.05
0.425 0.0875 -0.05
0.4375 0.0875 -0.05
0.45 0.0875 -0.05
0.4625 0.0875 -0.05
0.475 0.0875 -0.05
0.4875 0.0875 -0.05
0.5 0.0875 -0.05
0.5125 0.0875 -0.05
0.525 0.0875 -0.05
0.5375 0.0875 -0.05
0.55 0.0875 -0.05
0.5625 0.0875 -0.05
0.575 0.0875 -0.05
0.5875 0.0875 -0.05
0.6 0.0875 -0.05
0.0 0.1 -0.05
0.0125 0.1 -0.05
0.025 0.1 -0.05
0.0375 0.1 -0.05
0.05 0.1 -0.05
0.0625 0.1 -0.05
0.075 0.1 -0.05
0.0875 0.1 -0.05
0.1 0.1 -0.05
0.1125 0.1 -0.05
0.125 0.1 -0.05
0.1375 0.1 -0.05
0.15 0.1 -0.05
0.1625 0.1 -0.05
0.175 0.1 -0.05
0.1875 0.1 -0.05
0.2 0.1 -0.05
0.2125 0.1 -0.05
0.225 0.1 -0.05
0.2375 0.1 -0.05
0.25 0.1 -0.05
0.2625 0.1 -0.05
0.275 0.1 -0.05
0.2875 0.1 -0.05
0.3 0.1 -0.05
0.3125 0.1 -0.05
0.325 0.1 -0.05
0.3375 0.1 -0.05
0.35 0.1 -0.05
0.3625 0.1 -0.05
0.375 0.1 -0.05
0.3875 0.1 -0.05
0.4 0.1 -0.05
0.4125 0.1 -0.05
0.425 0.1 -0.05
0.4375 0.1 -0.05
0.45 0.1 -0.05
0.4625 0.1 -0.05
0.475 0.1 -0.05
0.4875 0.1 -0.05
0.5 0.1 -0.05
0.5125 0.1 -0.05
0.525 0.1 -0.05
0.5375 0.1 -0.05
0.55 0.1 -0.05
0.5625 0.1 -0.05
0.575 0.1 -0.05
0.5875 0.1 -0.05
0.6 0.1 -0.05
0.0 0.1125 -0.05
0.0125 0.1125 -0.05
0.025 0.1125 -0.05
0.0375 0.1125 -0.05
0.05 0.1125 -0.05
0.0625 0.1125 -0.05
0.075 0.1125 -0.05
0.0875 0.1125 -0.05
0.1 0.1125 -0.05
0.1125 0.1125 -0.05
0.125 0.1125 -0.05
0.1375 0.1125 -0.05
0.15 0.1125 -0.05
0.1625 0.1125 -0.05
0.175 0.1125 -0.05
0.1875 0.1125 -0.05
0.2 0.1125 -0.05
0.2125 0.1125 -0.05
0.225 0.1125 -0.05
0.2375 0.1125 -0.05
0.25 0.1125 -0.05
0.2625 0.1125 -0.05
0.275 0.1125 -0.05
0.2875 0.1125 -0.05
0.3 0.1125 -0.05
0.3125 0.1125 -0.05
0.325 0.1125 -0.05
0.3375 0.1125 -0.05
0.35 0.1125 -0.05
0.3625 0.1125 -0.05
0.375 0.1125 -0.05
0.3875 0.1125 -0.05
0.4 0.1125 -0.05
0.4125 0.1125 -0.05
0.425 0.1125 -0.05
0.4375 0.1125 -0.05
0.45 0.1125 -0.05
0.4625 0.1125 -0.05
0.475 0.1125 -0.05
0.4875 0.1125 -0.05
0.5 0.1125 -0.05
0.5125 0.1125 -0.05
0.525 0.1125 -0.05
0.5375 0.1125 -0.05
0.55 0.1125 -0.05
0.5625 0.1125 -0.05
0.575 0.1125 -0.05
0.5875 0.1125 -0.05
0.6 0.1125 -0.05
0.0 0.125 -0.05
0.0125 0.125 -0.05
0.025 0.125 -0.05
0.0375 0.125 -0.05
0.05 0.125 -0.05
0.0625 0.125 -0.05
0.075 0.125 -0.05
0.0875 0.125 -0.05
0.1 0.125 -0.05
0.1125 0.125 -0.05
0.125 0.125 -0.05
0.1375 0.125 -0.05
0.15 0.125 -0.05
0.1625 0.125 -0.05
0.175 0.125 -0.05
0.1875 0.125 -0.05
0.2 0.125 -0.05
0.2125 0.125 -0.05
0.225 0.125 -0.05
0.2375 0.125 -0.05
0.25 0.125 -0.05
0.2625 0.125 -0.05
0.275 0.125 -0.05
0.2875 0.125 -0.05
0.3 0.125 -0.05
0.3125 0.125 -0.05
0.325 0.125 -0.05
0.3375 0.125 -0.05
0.35 0.125 -0.05
0.3625 0.125 -0.05
0.375 0.125 -0.05
0.3875 0.125 -0.05
0.4 0.125 -0.05
0.4125 0.125 -0.05
0.425 0.125 -0.05
0.4375 0.125 -0.05
0.45 0.125 -0.05
0.4625 0.125 -0.05
0.475 0.125 -0.05
0.4875 0.125 -0.05
0.5 0.125 -0.05
0.5125 0.125 -0.05
0.525 0.125 -0.05
0.5375 0.125 -0.05
0.55 0.125 -0.05
0.5625 0.125 -0.05
0.575 0.125 -0.05
0.5875 0.125 -0.05
0.6 0.125 -0.05
0.0 0.1375 -0.05
0.0125 0.1375 -0.05
0.025 0.1375 -0.05
0.0375 0.1375 -0.05
0.05 0.1375 -0.05
0.0625 0.1375 -0.05
0.075 0.1375 -0.05
0.0875 0.1375 -0.05
[...]
CELL_DATA 16128
SCALARS P float 1
LOOKUP_TABLE default
100000.0000000002
99999.99999999892
100000.00000000263
99999.9999999913
100000.00000002625
99999.9999999178
100000.00000025003
99999.99999924583
100000.00000224197
99999.99999339889
100000.00001925025
99999.9999443359
100000.00015967299
99999.99954541448
100000.00128485782
99999.99639389297
100000.01005097984
99999.97217934224
100000.07646746877
99999.79133352806
100000.56514112408
99998.48163592289
100004.04326319878
99989.35714144181
100027.2755713495
99939.80246926485
100001.29223869227
133242.72430440295
318386.9088135574
653821.3667358825
948777.1258221816
1.0739895536425551e6
1.1031728382221865e6
1.1160737987821351e6
1.1277870236491386e6
1.1389066405527638e6
1.1493766060436177e6
1.159169705634802e6
1.1682656191707521e6
1.1766496209506865e6
1.1842862582487285e6
1.1911813959334402e6
1.1971931304944407e6
1.2025850479696763e6
1.2064019635998888e6
1.211256510575995e6
1.209239711107621e6
1.2234515059466392e6
100000.00000000019
99999.99999999914
100000.00000000231
99999.9999999917
100000.00000002522
99999.99999992088
100000.0000002416
99999.99999926996
100000.00000217455
99999.99999358406
100000.00001874482
99999.99994569876
100000.00015604505
99999.99955493484
100000.00126027862
99999.99645616002
100000.0098967484
99999.97255096558
100000.07560311475
99999.79324851149
100000.56120825642
99998.48859980634
100004.03557071656
99989.34176048163
100027.43515647066
99939.4105184109
99983.54494728628
132445.11457568934
316555.41230786726
653681.928753259
953251.6893351208
1.0822111210589907e6
1.1129763782910784e6
1.126574706352094e6
1.1386873835884328e6
1.150072941628192e6
1.1607521975353947e6
1.170733465413982e6
1.1800094718002041e6
1.1885666037054756e6
1.196364384339774e6
1.2034000663440695e6
1.2095225586182764e6
1.2149847541776078e6
1.2188249103789043e6
1.2236603750949076e6
1.2215199799663133e6
1.2359254912405296e6
100000.0000000001
99999.99999999932
100000.00000000207
99999.99999999249
100000.00000002289
99999.99999992794
100000.00000022164
99999.99999932635
100000.00000201735
99999.99999402097
100000.00001754498
99999.99994896035
100000.00014728769
99999.99957813112
100000.00119980006
99999.99661089266
100000.00951008621
99999.9734878049
100000.07342949566
99999.79796580263
100000.55212438514
99998.50172537199
100004.03515725337
99989.23718395282
100028.00718681028
99938.01979125554
99946.07609445111
130465.21762414767
310007.023124604
644434.1298017316
945686.0458699348
1.0773136272097374e6
1.1088001330360188e6
1.1222804705050986e6
1.1342008979165556e6
1.145393711597084e6
1.155876349900814e6
1.1656550482873667e6
1.1747236815973048e6
1.1830718229732146e6
1.1906644695681874e6
1.1975036808357842e6
1.2034493280948943e6
1.208751359263273e6
1.2124805314128937e6
1.2172023516094587e6
1.2150118704763448e6
1.2296332464704688e6
100000.00000000012
99999.99999999948
100000.00000000166
99999.99999999373
100000.00000001941
99999.99999993763
100000.00000019312
99999.99999940752
100000.00000178795
99999.99999466148
100000.00001577151
99999.99995381906
100000.00013412029
99999.99961338601
100000.00110669674
99999.99685284564
100000.0088933842
99999.9750219023
100000.06973375104
99999.80647646193
100000.53384318978
99998.53638731384
100003.98661227975
99989.23265205669
100028.39851450059
99936.92779971469
99899.43517837119
127464.29600286936
299818.8742296595
630535.8443645476
935941.4801339247
1.0732867803502306e6
1.106762112940946e6
1.1205297442018401e6
1.1325118425908503e6
1.143729330942277e6
1.1542205985356478e6
1.1640030403275045e6
1.173078415695148e6
1.1814413725962364e6
1.189060854093418e6
1.1959385831731888e6
1.2019385961044887e6
1.2072951658549693e6
1.2111022896150416e6
1.2158588560980456e6
1.2136902910700766e6
1.228699473957612e6
99999.99999999994
99999.9999999996
100000.00000000106
99999.99999999523
100000.00000001522
99999.9999999498
100000.000000158
99999.99999950842
100000.00000150118
99999.99999546989
100000.00001351356
99999.99996007002
100000.00011697937
99999.99965990188
100000.00098189592
99999.99718339542
100000.00803086665
99999.9772327013
100000.0641908276
99999.81998238526
100000.5021971293
99998.60635042869
100003.84637109104
99989.46023679902
100028.23795274588
99936.66470154296
99859.76338878425
123684.49015691843
286268.59738930047
611566.7230018821
922280.7662859836
1.0673595765507405e6
1.1034806941662123e6
1.117446170812789e6
1.1293235087366104e6
1.1404130238781234e6
1.1507680041797673e6
1.1604105162704606e6
1.1693468259207315e6
1.177575285197433e6
1.1850691206367484e6
1.1918309150060408e6
1.1977326456021264e6
1.2029950309790345e6
1.2067469051338197e6
1.2114199079009797e6
1.2091866256320165e6
1.2246206825944071e6
100000.00000000003
99999.99999999981
100000.00000000076
99999.99999999677
100000.00000001061
99999.99999996323
100000.00000011869
99999.99999962213
100000.00000117518
99999.99999639759
100000.00001089385
99999.99996740842
100000.00009659064
99999.99971606075
100000.00082863554
99999.99759745154
100000.00692473202
99999.98015004997
100000.05661126223
99999.8393204956
100000.4539707056
99998.72306210456
100003.57561920487
99990.04717157174
100027.1276061151
99938.08391399028
99839.92125214532
119430.29297924905
269786.41340118716
587589.6840109861
904509.5897591094
1.0596742556883632e6
1.0995168610845802e6
1.1138235979478408e6
1.1255862778754707e6
1.1365299880988386e6
1.1467316912082427e6
1.1562187480471015e6
1.1650029229356507e6
1.1730872951930237e6
1.1804502960326702e6
1.1870957060437447e6
1.1929037982646895e6
1.1980803250084615e6
1.2017891812088946e6
1.2063938112077035e6
1.2040951885422785e6
1.220076707119752e6
99999.99999999988
99999.99999999994
100000.00000000004
99999.9999999984
100000.00000000582
99999.99999997692
100000.00000007848
99999.99999973984
100000.0000008335
99999.99999738204
100000.00000808065
99999.99997539117
100000.00007409908
99999.99977897509
100000.00065395745
99999.99807864992
100000.0056102122
99999.98370828542
100000.04707736375
99999.86456979973
100000.38800721553
99998.89257265863
100003.14900004445
99991.08967287712
100024.7266507222
99942.19964189689
99845.23070738683
115038.25694721354
250916.57474704925
558701.4574321056
882159.9744477993
1.049785937548932e6
1.0946413424766667e6
1.1094705836051612e6
1.1210772154494221e6
1.131815316671059e6
1.1418010059357493e6
1.1510666885680403e6
1.1596294608930815e6
1.1674974269676253e6
1.174654988880533e6
1.1811083175099462e6
1.1867478908911194e6
1.1917669600580279e6
1.1953678174277837e6
1.199853222038959e6
1.197436976823903e6
1.2140787452900556e6
99999.9999999999
100000.00000000003
99999.99999999977
99999.99999999985
100000.00000000178
99999.9999999897
100000.00000004016
99999.99999985308
100000.0000005012
99999.99999835022
100000.0000052772
99999.99998345562
100000.00005104614
99999.99984447198
100000.00046899905
99999.99859776869
100000.00416233299
99999.9877202269
100000.03603763609
99999.89472044798
100000.30634362035
99999.11169494856
100002.56749411354
99992.6101089171
100020.89016696152
99949.79547563799
99871.8711796042
110845.99721258874
230325.7392522848
525114.369867951
854755.1372241325
1.0372318798162849e6
1.0887257158036102e6
1.104380525501405e6
1.1158118948675678e6
1.1262912282067437e6
1.1360021402861476e6
1.1449830054107795e6
1.1532563223719595e6
1.1608357290607616e6
1.1677125796969614e6
1.1738970643689933e6
1.1792919199701578e6
1.1840817217218352e6
1.1875066118775671e6
1.191822531011887e6
1.189234176105706e6
1.2066857993559842e6
99999.99999999977
100000.00000000016
99999.9999999994
100000.00000000095
99999.9999999982
100000.00000000077
100000.00000000719
99999.9999999526
100000.00000020451
99999.99999922796
100000.00000269973
99999.999990978
100000.0000292183
99999.99990746973
100000.00028811125
99999.9991146044
100000.0026926993
99999.99187933271
100000.02432340683
99999.92755285498
100000.2147896491
99999.36561553909
100001.86750401785
99994.52419155285
100015.78384818023
99960.98263914495
99908.73030256043
107154.28449401983
208800.5662608214
487194.56228388124
821804.9112992061
1.0214191554504676e6
1.0815671613854165e6
1.0985083908139353e6
1.1097624176942836e6
1.1199223113292665e6
1.1292874162434202e6
1.1379043207715563e6
1.1458004958137854e6
1.1529949551188769e6
1.159486258192063e6
1.1652896020741926e6
1.1703215483568003e6
1.1747608644640662e6
1.1778910197639165e6
1.1819316091192008e6
1.179064117978874e6
1.1974983571105883e6
99999.99999999987
100000.00000000013
99999.99999999914
100000.00000000179
99999.9999999956
100000.0000000091
99999.99999998146
100000.00000003175
99999.99999996471
99999.99999994934
100000.00000054578
99999.99999736708
100000.00001037917
99999.99996273224
100000.00012676069
99999.99958370207
100000.00133419456
99999.99579933895
100000.01305053009
99999.95986565712
100000.12245840133
99999.62862551698
100001.1207725988
99996.63463328763
100009.92670765494
99974.8684220054
99942.39051648788
104185.9737810462
187232.8246916765
445514.2734094339
782860.2825547484
1.0016201997811436e6
1.0728873849416971e6
1.0918041805905774e6
1.1029129521606842e6
1.112688586995479e6
1.121626190220907e6
1.1297856343789597e6
1.137198504692226e6
1.1438884290115794e6
1.149861026214059e6
1.155137499543715e6
1.159651283862836e6
1.1635771580808319e6
1.1662554954302572e6
1.1698885064284457e6
1.1666020037182844e6
1.1862540756759362e6
99999.99999999965
100000.00000000023
99999.99999999904
100000.00000000249
99999.9999999941
100000.00000001428
99999.99999996426
100000.00000008574
99999.9999997958
100000.00000046963
99999.99999895804
100000.00000217097
99999.99999594322
100000.0000058578
99999.99999856793
99999.99996314597
100000.00021514337
99999.99908933521
100000.00340393395
99999.98808501316
100000.04007338149
99999.86872233354
100000.42223507527
99998.66185410919
100004.12314305152
99989.53268646884
99963.20853945555
102050.13716554662
166582.61767099518
400901.3971489178
737587.2402397939
976963.4592513287
1.0622932799967208e6
1.0841957143137963e6
1.095250427632379e6
1.1045754584474587e6
1.1129917408709521e6
1.1205827076297912e6
1.127382031615215e6
1.1334148475164354e6
1.1386900930596532e6
1.143231890106983e6
1.146980313709042e6
1.150110888627324e6
1.1520246274372155e6
1.1549159643849756e6
1.1508484277921082e6
1.1719071636459485e6
99999.99999999965
100000.00000000019
99999.99999999897
100000.00000000247
99999.99999999355
100000.0000000167
99999.99999995583
100000.00000011426
99999.99999970177
100000.0000007729
99999.99999799755
100000.00000517107
99999.99998667532
100000.00003424032
99999.9999122504
100000.0002241872
99999.99942924782
100000.00144689286
99999.99635157827
100000.00913557751
99999.97734086608
100000.05545771029
99999.8668497215
100000.31146462784
99999.27348949973
100002.4444353718
99969.41982379649
100723.68081997213
147811.19427765717
354476.51320035243
685867.0886284495
946446.6691678412
1.0492338114882044e6
1.0755723700363836e6
1.086764879872651e6
1.0955792259266549e6
1.1033699674460762e6
1.1102648758069815e6
1.1162974672261672e6
1.1214899820065864e6
1.1258510609601303e6
1.1294017534664974e6
1.1320952004387397e6
1.1341167959006238e6
1.134945306547933e6
1.1368020971505174e6
1.131669334838738e6
1.1545769701380127e6
99999.99999999991
100000.00000000023
99999.9999999992
100000.00000000224
99999.9999999938
100000.00000001625
99999.99999995518
100000.00000011984
99999.99999967593
100000.00000087505
99999.99999763069
100000.00000642659
99999.99998251985
100000.00004768264
99999.99986948815
100000.00035854179
99999.99901105044
100000.0027394281
99999.99237775737
100000.021305729
99999.94016942586
100000.16879269184
99999.52164769694
100001.36171725114
99996.10433577134
100011.2602046002
99966.87861659308
100062.69154259514
131777.07981977722
307663.2460408251
627919.6337556883
908984.0102218977
1.0329505705002557e6
1.065758253501696e6
1.0774453159820952e6
1.0857090024584753e6
1.0927623792795793e6
1.098816709245494e6
1.1039013980944909e6
1.1080243808836532e6
1.1111766585328279e6
1.1133500824815817e6
1.1144713884710069e6
1.114685448285503e6
1.1134603518681775e6
1.1129953921618508e6
1.10515622347947e6
1.129336956763905e6
99999.99999999964
100000.00000000023
99999.99999999937
100000.0000000017
99999.9999999947
100000.00000001414
99999.9999999604
100000.00000010786
99999.99999970237
100000.00000081817
99999.99999774064
100000.00000625332
99999.99998263163
100000.0000484052
99999.99986457199
100000.0003804415
99999.9989266696
100000.00304171779
99999.9913402506
100000.02477045803
99999.92880818665
100000.20558979889
99999.40346420507
100001.7388508735
99994.91509456217
100014.7123764052
99964.5396994982
99848.31061701578
119100.00291387363
262155.2417729142
564438.1188672042
863502.9195717975
1.0124293097368364e6
1.054472314346799e6
1.0672720999082767e6
1.0749904588316341e6
1.0811958925928713e6
1.0862570850648915e6
1.0901992945589297e6
1.0930066657979058e6
1.0946356311189996e6
1.0950481220665413e6
1.0941519744023508e6
1.0920801974307785e6
1.0883788082370167e6
1.0853737173352626e6
1.0748878105593761e6
1.1020077083377496e6
99999.99999999983
100000.00000000016
99999.99999999926
100000.0000000014
99999.99999999569
100000.00000001096
99999.99999996855
100000.00000008584
99999.99999976128
100000.00000066127
99999.99999815812
100000.0000051383
99999.99998561539
100000.00004039807
99999.99988613561
100000.00032214512
99999.99908494811
100000.00261001903
99999.99252321338
100000.021513865
99999.93781207237
100000.1806018484
99999.47301342283
100001.54487492103
99995.45722384562
100013.17527254738
99968.78070023186
99855.98347366865
110020.69266468014
219822.38590023675
496713.58127790806
809104.0605331071
986365.0069076512
1.0412696859895447e6
1.0562001247935875e6
1.0634644084958872e6
1.0687237283985429e6
1.0726349203757427e6
1.0752222978539597e6
1.0764169629954465e6
1.076098849337139e6
1.074106999924255e6
1.0701546514065708e6
1.0640252799653914e6
1.0547099398164507e6
1.0436389648111718e6
1.02118471741884e6
1.0397607079426796e6
99999.99999999983
100000.00000000016
99999.99999999959
100000.00000000096
99999.99999999706
100000.00000000758
99999.99999997778
100000.0000000602
99999.999999832
100000.00000046521
99999.9999987038
100000.00000361276
99999.99998990107
100000.00002829939
99999.99992047063
100000.00022416285
99999.99936615562
100000.0017982691
99999.99488014776
100000.0146306784
99999.95802870655
100000.1208925965
99999.65030874121
100001.01580317333
99997.0412594876
100008.49188459519
99979.98838279997
99920.1401377177
104313.84518566179
182539.33796615124
426715.44817154086
745292.0371547772
953164.4402741861
1.0254618196384192e6
1.0441299936530322e6
1.051185313526042e6
1.0554373744501653e6
1.058061195658838e6
1.0591041746194456e6
1.0584352579053538e6
1.0558426571916232e6
1.0510448941985508e6
1.0436125538606623e6
1.0332039892711499e6
1.018860774094853e6
1.0023609861612208e6
974412.7226115868
998107.7930876334
99999.99999999981
100000.00000000006
99999.99999999968
100000.00000000047
99999.99999999817
100000.00000000473
99999.99999998623
100000.00000003655
99999.99999989789
100000.00000027945
99999.9999992284
100000.00000212598
99999.99999413356
100000.00001619462
99999.99995525544
100000.00012370868
99999.99965773447
100000.0009475127
99999.99737563921
100000.00727136064
99999.9798494428
100000.05584028648
99999.84530114305
100000.42822839164
99998.81872111934
100003.17168972915
99993.51748841009
99962.79297757348
101320.77680141055
151921.35040027043
357085.7616052879
672270.1606035467
911024.9478052949
1.0060181807038386e6
1.0308575306742841e6
1.038206559269762e6
1.0414587599346298e6
1.0426903636001216e6
1.042022171428146e6
1.0392439002565953e6
1.0339777070345439e6
1.0256434328045041e6
1.0132324638478181e6
995171.755714061
967733.1948508047
925917.8197381294
845648.3803934915
714447.7140487606
100000.0
99999.99999999987
99999.99999999972
100000.00000000013
99999.99999999897
100000.00000000228
99999.99999999277
100000.00000001825
99999.99999994932
100000.00000013466
99999.99999963802
100000.00000096396
99999.99999744096
100000.0000067467
99999.9999823479
100000.00004570537
99999.99988325851
100000.00029263753
99999.9992858254
100000.00167363926
99999.99633237987
100000.00706295793
99999.99039054978
99999.99441121887
100000.12120643945
99999.29259697699
100003.70660076404
99975.84456658433
100131.41030059494
128973.45143928812
290998.1228355705
591260.9847215391
858138.9839700841
981467.6417895303
1.0159976060529195e6
1.0245577924814578e6
1.0269413547841671e6
1.0267423147890378e6
1.0242857706341712e6
1.0192985289518024e6
1.0112488697281833e6
999296.8737787077
982017.2848130737
957173.77808437
920161.1523204411
864938.826350293
771563.0544225614
631951.7264226793
99999.99999999988
99999.99999999993
99999.99999999981
100000.0
99999.99999999937
100000.00000000068
99999.99999999696
100000.0000000062
99999.99999998299
100000.00000004073
99999.9999999008
100000.0000002274
99999.99999950921
100000.0000009292
99999.99999874037
99999.99999943732
100000.00001407733
99999.99992214165
100000.0003368129
99999.99868770382
100000.00482801425
99999.98285794923
100000.0594409329
99999.79722562282
100000.68402110708
99997.70812209378
100007.6116261886
99978.72243562047
99862.89756111246
113738.28503157561
231840.70504239603
504766.3208713234
793063.3858791434
949834.0277136493
998871.5245289417
1.0101979231874073e6
1.0120455852459096e6
1.0104742678658937e6
1.0062577117351143e6
999126.9911214384
988455.9400139333
973266.1049751228
951980.1941706666
922260.3269279654
879813.4121643245
819636.7974062766
728341.7015390171
604591.6661459467
100000.0
99999.99999999994
99999.99999999977
99999.99999999993
99999.9999999997
99999.99999999993
99999.99999999946
100000.00000000003
100000.0000000008
99999.99999999258
100000.00000003226
99999.99999987143
100000.00000046991
99999.99999834827
100000.00000562753
99999.99998121936
100000.00006170243
99999.99979964911
100000.00064463858
99999.99794054664
100000.00654270698
99999.97930550721
100000.06523267036
99999.79491155462
100000.64351617568
99997.98602918145
100006.18033524876
99985.19668657947
99898.70494163113
105148.0917526386
182709.88507927183
416645.0685320971
715259.1256444464
908670.0291289195
978356.4131031483
994937.8067595091
996899.3055003788
994140.5821306404
988292.1806042313
979211.1187434621
966256.1445392094
948429.7066949765
924207.7558249427
891476.7738953364
846729.8093661126
786382.8933577887
702254.9704336027
596104.0579205871
100000.0
99999.99999999994
100000.0
99999.99999999983
99999.99999999994
99999.9999999994
100000.00000000057
99999.99999999738
100000.00000000728
99999.99999997616
100000.00000007234
99999.99999977557
100000.00000068627
99999.99999790326
100000.0000063704
99999.99998071564
100000.00005814162
99999.9998253817
100000.00052234938
99999.998443922
100000.00461488595
99999.98638107591
100000.03996468529
99999.88349706093
100000.3368595663
99999.03803702438
100002.63526829939
99994.98930189175
99956.03303631111
101292.37583690017
145733.8757123061
331884.29242570646
625744.4207002384
855294.1180096237
952717.3840244436
978326.0491120894
981546.7825316954
977953.8285463362
970691.3877160888
959933.6369471973
945112.6369354974
925302.1672650462
899151.9037961352
864907.9939474069
819924.1150157161
761832.4297314812
685965.1973593668
594855.3065931514
100000.0
99999.99999999993
100000.00000000009
99999.99999999983
99999.99999999991
99999.99999999942
100000.00000000065
99999.99999999703
100000.00000000748
99999.99999997712
100000.0000000649
99999.99999981116
100000.0000005423
99999.99999844177
100000.00000445014
99999.99998735813
100000.00003564863
99999.99990036312
100000.00027531528
99999.99925049562
100000.00199979225
99999.99481341615
100000.01289137788
99999.970129148
100000.06038321872
99999.91748857798
99999.88740495655
100002.14465493314
99979.0842007771
100073.52666308812
121342.90919044508
255972.14637994688
527684.0442019256
787345.4412266702
919481.517932916
959491.0274949073
965878.1946005808
962053.0369046319
953683.0090136968
941565.0006179067
925308.5599236606
904121.3313225377
876879.7241560918
842210.4451027015
798225.3770465894
743451.2870155463
675418.626270771
596487.81470226
100000.0