# vtk DataFile Version 2.0
JuliaCFD
ASCII
DATASET UNSTRUCTURED_GRID

POINTS 32898 float
0.0 0.0 -0.05
0.0125 0.0 -0.05
0.025 0.0 -0.05
0.0375 0.0 -0.05
0.05 0.0 -0.05
0.0625 0.0 -0.05
0.075 0.0 -0.05
0.0875 0.0 -0.05
0.1 0.0 -0.05
0.1125 0.0 -0.05
0.125 0.0 -0.05
0.1375 0.0 -0.05
0.15 0.0 -0.05
0.1625 0.0 -0.05
0.175 0.0 -0.05
0.1875 0.0 -0.05
0.2 0.0 -0.05
0.2125 0.0 -0.05
0.225 0.0 -0.05
0.2375 0.0 -0.05
0.25 0.0 -0.05
0.2625 0.0 -0.05
0.275 0.0 -0.05
0.2875 0.0 -0.05
0.3 0.0 -0.05
0.3125 0.0 -0.05
0.325 0.0 -0.05
0.3375 0.0 -0.05
0.35 0.0 -0.05
0.3625 0.0 -0.05
0.375 0.0 -0.05
0.3875 0.0 -0.05
0.4 0.0 -0.05
0.4125 0.0 -0.05
0.425 0.0 -0.05
0.4375 0.0 -0.05
0.45 0.0 -0.05
0.4625 0.0 -0.05
0.475 0.0 -0.05
0.4875 0.0 -0.05
0.5 0.0 -0.05
0.5125 0.0 -0.05
0.525 0.0 -0.05
0.5375 0.0 -0.05
0.55 0.0 -0.05
0.5625 0.0 -0.05
0.575 0.0 -0.05
0.5875 0.0 -0.05
0.6 0.0 -0.05
0.0 0.0125 -0.05
0.0125 0.0125 -0.05
0.025 0.0125 -0.05
0.0375 0.0125 -0.05
0.05 0.0125 -0.05
0.0625 0.0125 -0.05
0.075 0.0125 -0.05
0.0875 0.0125 -0.05
0.1 0.0125 -0.05
0.1125 0.0125 -0.05
0.125 0.0125 -0.05
0.1375 0.0125 -0.05
0.15 0.0125 -0.05
0.1625 0.0125 -0.05
0.175 0.0125 -0.05
0.1875 0.0125 -0.05
0.2 0.0125 -0.05
0.2125 0.0125 -0.05
0.225 0.0125 -0.05
0.2375 0.0125 -0.05
0.25 0.0125 -0.05
0.2625 0.0125 -0.05
0.275 0.0125 -0.05
0.2875 0.0125 -0.05
0.3 0.0125 -0.05
0.3125 0.0125 -0.05
0.325 0.0125 -0.05
0.3375 0.0125 -0.05
0.35 0.0125 -0.05
0.3625 0.0125 -0.05
0.375 0.0125 -0.05
0.3875 0.0125 -0.05
0.4 0.0125 -0.05
0.4125 0.0125 -0.05
0.425 0.0125 -0.05
0.4375 0.0125 -0.05
0.45 0.0125 -0.05
0.4625 0.0125 -0.05
0.475 0.0125 -0.05
0.4875 0.0125 -0.05
0.5 0.0125 -0.05
0.5125 0.0125 -0.05
0.525 0.0125 -0.05
0.5375 0.0125 -0.05
0.55 0.0125 -0.05
0.5625 0.0125 -0.05
0.575 0.0125 -0.05
0.5875 0.0125 -0.05
0.6 0.0125 -0.05
0.0 0.025 -0.05
0.0125 0.025 -0.05
0.025 0.025 -0.05
0.0375 0.025 -0.05
0.05 0.025 -0.05
0.0625 0.025 -0.05
0.075 0.025 -0.05
0.0875 0.025 -0.05
0.1 0.025 -0.05
0.1125 0.025 -0.05
0.125 0.025 -0.05
0.1375 0.025 -0.05
0.15 0.025 -0.05
0.1625 0.025 -0.05
0.175 0.025 -0.05
0.1875 0.025 -0.05
0.2 0.025 -0.05
0.2125 0.025 -0.05
0.225 0.025 -0.05
0.2375 0.025 -0.05
0.25 0.025 -0.05
0.2625 0.025 -0.05
0.275 0.025 -0.05
0.2875 0.025 -0.05
0.3 0.025 -0.05
0.3125 0.025 -0.05
0.325 0.025 -0.05
0.3375 0.025 -0.05
0.35 0.025 -0.05
0.3625 0.025 -0.05
0.375 0.025 -0.05
0.3875 0.025 -0.05
0.4 0.025 -0.05
0.4125 0.025 -0.05
0.425 0.025 -0.05
0.4375 0.025 -0.05
0.45 0.025 -0.05
0.4625 0.025 -0.05
0.475 0.025 -0.05
0.4875 0.025 -0.05
0.5 0.025 -0.05
0.5125 0.025 -0.05
0.525 0.025 -0.05
0.5375 0.025 -0.05
0.55 0.025 -0.05
0.5625 0.025 -0.05
0.575 0.025 -0.05
0.5875 0.025 -0.05
0.6 0.025 -0.05
0.0 0.0375 -0.05
0.0125 0.0375 -0.05
0.025 0.0375 -0.05
0.0375 0.0375 -0.05
0.05 0.0375 -0.05
0.0625 0.0375 -0.05
0.075 0.0375 -0.05
0.0875 0.0375 -0.05
0.1 0.0375 -0.05
0.1125 0.0375 -0.05
0.125 0.0375 -0.05
0.1375 0.0375 -0.05
0.15 0.0375 -0.05
0.1625 0.0375 -0.05
0.175 0.0375 -0.05
0.1875 0.0375 -0.05
0.2 0.0375 -0.05
0.2125 0.0375 -0.05
0.225 0.0375 -0.05
0.2375 0.0375 -0.05
0.25 0.0375 -0.05
0.2625 0.0375 -0.05
0.275 0.0375 -0.05
0.2875 0.0375 -0.05
0.3 0.0375 -0.05
0.3125 0.0375 -0.05
0.325 0.0375 -0.05
0.3375 0.0375 -0.05
0.35 0.0375 -0.05
0.3625 0.0375 -0.05
0.375 0.0375 -0.05
0.3875 0.0375 -0.05
0.4 0.0375 -0.05
0.4125 0.0375 -0.05
0.425 0.0375 -0.05
0.4375 0.0375 -0.05
0.45 0.0375 -0.05
0.4625 0.0375 -0.05
0.475 0.0375 -0.05
0.4875 0.0375 -0.05
0.5 0.0375 -0.05
0.5125 0.0375 -0.05
0.525 0.0375 -0.05
0.5375 0.0375 -0.05
0.55 0.0375 -0.05
0.5625 0.0375 -0.05
0.575 0.0375 -0.05
0.5875 0.0375 -0.05
0.6 0.0375 -0.05
0.0 0.05 -0.05
0.0125 0.05 -0.05
0.025 0.05 -0.05
0.0375 0.05 -0.05
0.05 0.05 -0.05
0.0625 0.05 -0.05
0.075 0.05 -0.05
0.0875 0.05 -0.05
0.1 0.05 -0.05
0.1125 0.05 -0.05
0.125 0.05 -0.05
0.1375 0.05 -0.05
0.15 0.05 -0.05
0.1625 0.05 -0.05
0.175 0.05 -0.05
0.1875 0.05 -0.05
0.2 0.05 -0.05
0.2125 0.05 -0.05
0.225 0.05 -0.05
0.2375 0.05 -0.05
0.25 0.05 -0.05
0.2625 0.05 -0.05
0.275 0.05 -0.05
0.2875 0.05 -0.05
0.3 0.05 -0.05
0.3125 0.05 -0.05
0.325 0.05 -0.05
0.3375 0.05 -0.05
0.35 0.05 -0.05
0.3625 0.05 -0.05
0.375 0.05 -0.05
0.3875 0.05 -0.05
0.4 0.05 -0.05
0.4125 0.05 -0.05
0.425 0.05 -0.05
0.4375 0.05 -0.05
0.45 0.05 -0.05
0.4625 0.05 -0.05
0.475 0.05 -0.05
0.4875 0.05 -0.05
0.5 0.05 -0.05
0.5125 0.05 -0.05
0.525 0.05 -0.05
0.5375 0.05 -0.05
0.55 0.05 -0.05
0.5625 0.05 -0.05
0.575 0.05 -0.05
0.5875 0.05 -0.05
0.6 0.05 -0.05
0.0 0.0625 -0.05
0.0125 0.0625 -0.05
0.025 0.0625 -0.05
0.0375 0.0625 -0.05
0.05 0.0625 -0.05
0.0625 0.0625 -0.05
0.075 0.0625 -0.05
0.0875 0.0625 -0.05
0.1 0.0625 -0.05
0.1125 0.0625 -0.05
0.125 0.0625 -0.05
0.1375 0.0625 -0.05
0.15 0.0625 -0.05
0.1625 0.0625 -0.05
0.175 0.0625 -0.05
0.1875 0.0625 -0.05
0.2 0.0625 -0.05
0.2125 0.0625 -0.05
0.225 0.0625 -0.05
0.2375 0.0625 -0.05
0.25 0.0625 -0.05
0.2625 0.0625 -0.05
0.275 0.0625 -0.05
0.2875 0.0625 -0.05
0.3 0.0625 -0.05
0.3125 0.0625 -0.05
0.325 0.0625 -0.05
0.3375 0.0625 -0.05
0.35 0.0625 -0.05
0.3625 0.0625 -0.05
0.375 0.0625 -0.05
0.3875 0.0625 -0.05
0.4 0.0625 -0.05
0.4125 0.0625 -0.05
0.425 0.0625 -0.05
0.4375 0.0625 -0.05
0.45 0.0625 -0.05
0.4625 0.0625 -0.05
0.475 0.0625 -0.05
0.4875 0.0625 -0.05
0.5 0.0625 -0.05
0.5125 0.0625 -0.05
0.525 0.0625 -0.05
0.5375 0.0625 -0.05
0.55 0.0625 -0.05
0.5625 0.0625 -0.05
0.575 0.0625 -0.05
0.5875 0.0625 -0.05
0.6 0.0625 -0.05
0.0 0.075 -0.05
0.0125 0.075 -0.05
0.025 0.075 -0.05
0.0375 0.075 -0.05
0.05 0.075 -0.05
0.0625 0.075 -0.05
0.075 0.075 -0.05
0.0875 0.075 -0.05
0.1 0.075 -0.05
0.1125 0.075 -0.05
0.125 0.075 -0.05
0.1375 0.075 -0.05
0.15 0.075 -0.05
0.1625 0.075 -0.05
0.175 0.075 -0.05
0.1875 0.075 -0.05
0.2 0.075 -0.05
0.2125 0.075 -0.05
0.225 0.075 -0.05
0.2375 0.075 -0.05
0.25 0.075 -0.05
0.2625 0.075 -0.05
0.275 0.075 -0.05
0.2875 0.075 -0.05
0.3 0.075 -0.05
0.3125 0.075 -0.05
0.325 0.075 -0.05
0.3375 0.075 -0.05
0.35 0.075 -0.05
0.3625 0.075 -0.05
0.375 0.075 -0.05
0.3875 0.075 -0.05
0.4 0.075 -0.05
0.4125 0.075 -0.05
0.425 0.075 -0.05
0.4375 0.075 -0.05
0.45 0.075 -0.05
0.4625 0.075 -0.05
0.475 0.075 -0.05
0.4875 0.075 -0.05
0.5 0.075 -0.05
0.5125 0.075 -0.05
0.525 0.075 -0.05
0.5375 0.075 -0.05
0.55 0.075 -0.05
0.5625 0.075 -0.05
0.575 0.075 -0.05
0.5875 0.075 -0.05
0.6 0.075 -0.05
0.0 0.0875 -0.05
0.0125 0.0875 -0.05
0.025 0.0875 -0.05
0.0375 0.0875 -0.05
0.05 0.0875 -0.05
0.0625 0.0875 -0.05
0.075 0.0875 -0.05
0.0875 0.0875 -0.05
0.1 0.0875 -0.05
0.1125 0.0875 -0.05
0.125 0.0875 -0.05
0.1375 0.0875 -0.05
0.15 0.0875 -0.05
0.1625 0.0875 -0.05
0.175 0.0875 -0.05
0.1875 0.0875 -0.05
0.2 0.0875 -0.05
0.2125 0.0875 -0.05
0.225 0.0875 -0.05
0.2375 0.0875 -0.05
0.25 0.0875 -0.05
0.2625 0.0875 -0.05
0.275 0.0875 -0.05
0.2875 0.0875 -0.05
0.3 0.0875 -0.05
0.3125 0.0875 -0.05
0.325 0.0875 -0.05
0.3375 0.0875 -0.05
0.35 0.0875 -0.05
0.3625 0.0875 -0.05
0.375 0.0875 -0.05
0.3875 0.0875 -0.05
0.4 0.0875 -0.05
0.4125 0.0875 -0.05
0.425 0.0875 -0.05
0.4375 0.0875 -0.05
0.45 0.0875 -0.05
0.4625 0.0875 -0.05
0.475 0.0875 -0.05
0.4875 0.0875 -0.05
0.5 0.0875 -0.05
0.5125 0.0875 -0.05
0.525 0.0875 -0.05
0.5375 0.0875 -0.05
0.55 0.0875 -0.05
0.5625 0.0875 -0.05
0.575 0.0875 -0.05
0.5875 0.0875 -0.05
0.6 0.0875 -0.05
0.0 0.1 -0.05
0.0125 0.1 -0.05
0.025 0.1 -0.05
0.0375 0.1 -0.05
0.05 0.1 -0.05
0.0625 0.1 -0.05
0.075 0.1 -0.05
0.0875 0.1 -0.05
0.1 0.1 -0.05
0.1125 0.1 -0.05
0.125 0.1 -0.05
0.1375 0.1 -0.05
0.15 0.1 -0.05
0.1625 0.1 -0.05
0.175 0.1 -0.05
0.1875 0.1 -0.05
0.2 0.1 -0.05
0.2125 0.1 -0.05
0.225 0.1 -0.05
0.2375 0.1 -0.05
0.25 0.1 -0.05
0.2625 0.1 -0.05
0.275 0.1 -0.05
0.2875 0.1 -0.05
0.3 0.1 -0.05
0.3125 0.1 -0.05
0.325 0.1 -0.05
0.3375 0.1 -0.05
0.35 0.1 -0.05
0.3625 0.1 -0.05
0.375 0.1 -0.05
0.3875 0.1 -0.05
0.4 0.1 -0.05
0.4125 0.1 -0.05
0.425 0.1 -0.05
0.4375 0.1 -0.05
0.45 0.1 -0.05
0.4625 0.1 -0.05
0.475 0.1 -0.05
0.4875 0.1 -0.05
0.5 0.1 -0.05
0.5125 0.1 -0.05
0.525 0.1 -0.05
0.5375 0.1 -0.05
0.55 0.1 -0.05
0.5625 0.1 -0.05
0.575 0.1 -0.05
0.5875 0.1 -0.05
0.6 0.1 -0.05
0.0 0.1125 -0.05
0.0125 0.1125 -0.05
0.025 0.1125 -0.05
0.0375 0.1125 -0.05
0.05 0.1125 -0.05
0.0625 0.1125 -0.05
0.075 0.1125 -0.05
0.0875 0.1125 -0.05
0.1 0.1125 -0.05
0.1125 0.1125 -0.05
0.125 0.1125 -0.05
0.1375 0.1125 -0.05
0.15 0.1125 -0.05
0.1625 0.1125 -0.05
0.175 0.1125 -0.05
0.1875 0.1125 -0.05
0.2 0.1125 -0.05
0.2125 0.1125 -0.05
0.225 0.1125 -0.05
0.2375 0.1125 -0.05
0.25 0.1125 -0.05
0.2625 0.1125 -0.05
0.275 0.1125 -0.05
0.2875 0.1125 -0.05
0.3 0.1125 -0.05
0.3125 0.1125 -0.05
0.325 0.1125 -0.05
0.3375 0.1125 -0.05
0.35 0.1125 -0.05
0.3625 0.1125 -0.05
0.375 0.1125 -0.05
0.3875 0.1125 -0.05
0.4 0.1125 -0.05
0.4125 0.1125 -0.05
0.425 0.1125 -0.05
0.4375 0.1125 -0.05
0.45 0.1125 -0.05
0.4625 0.1125 -0.05
0.475 0.1125 -0.05
0.4875 0.1125 -0.05
0.5 0.1125 -0.05
0.5125 0.1125 -0.05
0.525 0.1125 -0.05
0.5375 0.1125 -0.05
0.55 0.1125 -0.05
0.5625 0.1125 -0.05
0.575 0.1125 -0.05
0.5875 0.1125 -0.05
0.6 0.1125 -0.05
0.0 0.125 -0.05
0.0125 0.125 -0.05
0.025 0.125 -0.05
0.0375 0.125 -0.05
0.05 0.125 -0.05
0.0625 0.125 -0.05
0.075 0.125 -0.05
0.0875 0.125 -0.05
0.1 0.125 -0.05
0.1125 0.125 -0.05
0.125 0.125 -0.05
0.1375 0.125 -0.05
0.15 0.125 -0.05
0.1625 0.125 -0.05
0.175 0.125 -0.05
0.1875 0.125 -0.05
0.2 0.125 -0.05
0.2125 0.125 -0.05
0.225 0.125 -0.05
0.2375 0.125 -0.05
0.25 0.125 -0.05
0.2625 0.125 -0.05
0.275 0.125 -0.05
0.2875 0.125 -0.05
0.3 0.125 -0.05
0.3125 0.125 -0.05
0.325 0.125 -0.05
0.3375 0.125 -0.05
0.35 0.125 -0.05
0.3625 0.125 -0.05
0.375 0.125 -0.05
0.3875 0.125 -0.05
0.4 0.125 -0.05
0.4125 0.125 -0.05
0.425 0.125 -0.05
0.4375 0.125 -0.05
0.45 0.125 -0.05
0.4625 0.125 -0.05
0.475 0.125 -0.05
0.4875 0.125 -0.05
0.5 0.125 -0.05
0.5125 0.125 -0.05
0.525 0.125 -0.05
0.5375 0.125 -0.05
0.55 0.125 -0.05
0.5625 0.125 -0.05
0.575 0.125 -0.05
0.5875 0.125 -0.05
0.6 0.125 -0.05
0.0 0.1375 -0.05
0.0125 0.1375 -0.05
0.025 0.1375 -0.05
0.0375 0.1375 -0.05
0.05 0.1375 -0.05
0.0625 0.1375 -0.05
0.075 0.1375 -0.05
0.0875 0.1375 -0.05
[...]
CELL_DATA 16128
SCALARS P float 1
LOOKUP_TABLE default
100000.0
100000.0
100000.0
100000.0
100000.0
100000.0
100000.00000000004
100000.00000000017
100000.00000000121
100000.00000000552
100000.00000002363
100000.0000000995
100000.00000041656
100000.00000172734
100000.00000710636
100000.0000290089
100000.00011750821
100000.00047239929
100000.00188494076
100000.00746583333
100000.02935597209
100000.11460371541
100000.44425470103
100001.71018475191
100006.53843357338
100024.82831081074
100093.63035312587
100350.42213196764
101298.3428649129
104725.74350081221
116543.85330699506
152825.63905905336
241726.6580024431
404134.89478462393
624828.4222456864
849913.4786953926
1.0220342425580237e6
1.121597204569917e6
1.1674842657549276e6
1.1866476320100916e6
1.1956780869785259e6
1.2014175967297794e6
1.2060174405521436e6
1.2099808621932422e6
1.2133564227455168e6
1.216107078821996e6
1.2183873117808322e6
1.2378225997245733e6
100000.0
100000.0
100000.00000000006
100000.0
100000.0
100000.0
99999.99999999997
100000.00000000007
100000.00000000109
100000.00000000546
100000.00000002325
100000.00000009839
100000.00000041074
100000.00000170298
100000.00000700528
100000.00002859115
100000.00011579848
100000.00046545589
100000.00185696158
100000.00735395896
100000.02891208763
100000.1128561014
100000.43742795306
100001.68373177957
100006.43680364985
100024.44154859563
100092.17526405297
100345.03370165787
101278.90476275847
104659.13549749437
116340.31622680635
152352.59115490894
241152.55411680366
404606.5736189567
628560.2758668752
858965.130635525
1.0367300825380627e6
1.1405023248427182e6
1.1887565430130265e6
1.2089525680068114e6
1.2182425846657427e6
1.2238185844894247e6
1.2280217613725928e6
1.231464452252873e6
1.2342707253227744e6
1.236470149607995e6
1.2383489120946215e6
1.2580289599632986e6
100000.0
100000.0
100000.0
100000.0
100000.0
100000.0
100000.0
100000.00000000007
100000.0000000011
100000.00000000537
100000.0000000226
100000.0000000954
100000.00000039862
100000.00000165215
100000.00000679308
100000.00002771494
100000.00011220695
100000.0004508514
100000.0017980341
100000.00711800692
100000.0279744599
100000.10915821385
100000.42295373799
100001.62750654329
100006.22008434219
100023.61294566066
100089.03523051261
100333.26367987448
101235.50885329187
104504.08976695129
115824.25144504089
150895.4543063968
238038.76281963513
399754.34214129724
622971.0618422115
854193.8151906752
1.0337608508994478e6
1.139229197033903e6
1.1885106167809675e6
1.209135273704888e6
1.218502508478283e6
1.2239911791635787e6
1.2280464328182652e6
1.2313309229393997e6
1.233990837906514e6
1.2360675639525864e6
1.237979169849794e6
1.2580885530322257e6
100000.0
100000.0
100000.00000000006
100000.0
100000.0
100000.0
100000.0
100000.00000000006
100000.00000000108
100000.00000000493
100000.00000002164
100000.00000009126
100000.0000003809
100000.00000157779
100000.00000648404
100000.00002643866
100000.0001069773
100000.00042958565
100000.00171221647
100000.00677429668
100000.02660808325
100000.10376619782
100000.40182997451
100001.54534631787
100005.90280599464
100022.39650630018
100084.40636410168
100315.80379842337
101170.51037667219
104268.34317231331
115020.66660766181
148540.9615231827
232742.0649518311
390933.3752094215
611860.5115630123
843358.1542098282
1.0252762828943186e6
1.133415987213747e6
1.1845205828746427e6
1.2060753029555473e6
1.21584674025916e6
1.221508750125861e6
1.225658996283166e6
1.2290210557374994e6
1.2317569370087637e6
1.2339103558663453e6
1.2360519691246646e6
1.2568073772241753e6
100000.0
100000.0
100000.0
100000.0
100000.0
100000.0
100000.0
100000.00000000007
100000.0000000011
100000.00000000466
100000.00000002049
100000.00000008594
100000.00000035856
100000.00000148392
100000.00000609309
100000.00002482427
100000.00010036303
100000.00040269527
100000.0016037174
100000.00633976662
100000.02488051807
100000.09694708687
100000.37510232603
100001.44130702599
100005.50055126628
100020.8515504399
100078.512651912
100293.49436996691
101087.0424937197
103963.4051334049
113969.39045166638
145404.42316657078
225526.20811563169
378668.1506081268
596159.0434230474
827863.6408333108
1.0130738553831241e6
1.1250776105497086e6
1.1788459276780062e6
1.201749954031029e6
1.2120922225987795e6
1.2179842768610793e6
1.2222473900807898e6
1.2256932223397577e6
1.2285084291689394e6
1.2307468926415078e6
1.233159773321508e6
1.2547138134963966e6
100000.0
100000.0
100000.00000000006
100000.0
100000.0
100000.0
99999.99999999997
100000.00000000013
100000.00000000099
100000.00000000448
100000.00000001895
100000.00000007982
100000.00000033247
100000.0000013742
100000.0000056369
100000.0000229419
100000.00009265516
100000.00037137354
100000.00147739027
100000.0058340009
100000.02287018824
100000.08901260619
100000.34400119193
100001.32021388307
100005.032137557
100019.05114293442
100071.63696493153
100267.42798182726
100989.29897660465
103604.99031052909
112724.67403074069
141634.38036172857
216666.2115827783
363296.88036195876
576145.3198607862
807854.727819618
997211.5713241156
1.1142836500409022e6
1.171603862121355e6
1.1962993874696905e6
1.2073674697655425e6
1.2135132288158194e6
1.2178664969111308e6
1.2213635994244711e6
1.2242305789018418e6
1.226542682476062e6
1.2292555580006733e6
1.2517838584069475e6
100000.0
100000.0
100000.0
100000.0
100000.0
100000.0
100000.0
100000.00000000019
100000.00000000097
100000.00000000399
100000.00000001732
100000.00000007289
100000.00000030345
100000.00000125315
100000.00000513422
100000.00002086896
100000.00008417394
100000.00033693471
100000.00133858781
100000.00527864459
100000.02066402468
100000.08030965284
100000.30990268583
100001.18749715868
100004.51889767102
100017.07878883547
100064.10520033895
100238.87170747026
100882.16018388513
103211.38014323865
111349.66215344818
137405.13540864366
206480.3853274189
345170.2405785222
551999.7089585905
783226.5441776867
977391.7021554006
1.1007298872702161e6
1.1625788998298368e6
1.1895872136633082e6
1.20157508949456e6
1.2080066678796448e6
1.2124203641659913e6
1.215924259932187e6
1.2188045303234532e6
1.2211723524193529e6
1.2242151349384768e6
1.2479359273056074e6
100000.0
100000.0
100000.0
100000.0
100000.0
100000.0
100000.0
100000.00000000012
100000.00000000093
100000.00000000367
100000.0000000155
100000.00000006556
100000.0000002729
100000.00000112558
100000.00000460404
100000.0000186855
100000.00007524945
100000.00030073426
100000.0011928328
100000.00469604858
100000.01835189675
100000.07119737852
100000.27423403498
100001.04879941528
100003.98303679061
100015.0215076626
100056.25696911219
100209.1437802965
100770.68847406372
102801.50483927388
109910.33127879552
132905.65341345864
195333.09436994148
324709.74521932425
523951.472968601
753849.691668282
953213.4350054512
1.0839782638436423e6
1.1514361887796796e6
1.181384445287945e6
1.1945454347865027e6
1.2013142169894688e6
1.2057550370432588e6
1.20920788502154e6
1.2120479047514477e6
1.214442637377429e6
1.2178485683197046e6
1.2430393237542256e6
100000.0
100000.0
100000.0
100000.0
100000.0
100000.0
100000.0
100000.00000000013
100000.0000000008
100000.00000000332
100000.0000000139
100000.00000005838
100000.0000002419
100000.0000009955
100000.00000406493
100000.0000164686
100000.00006620158
100000.0002640815
100000.00104545617
100000.0041077692
100000.01602041048
100000.06202161452
100000.23836823755
100000.90954193189
100003.44585022106
100012.96253061212
100048.41588655677
100179.49447201402
100659.66394578808
102393.23250303057
108469.89636512894
128326.81799463017
183624.73076069623
302424.3286786642
492332.47536071466
719644.4953077385
924237.3854113317
1.0634994653079228e6
1.1377501348653762e6
1.1713917051638872e6
1.1860537756891504e6
1.1932349683953621e6
1.1976617836043732e6
1.200982537571658e6
1.2037013782492357e6
1.2060724744694594e6
1.2098769586232821e6
1.236898447092581e6
100000.0
100000.0
100000.0
100000.0
100000.0
100000.0
100000.0
100000.00000000012
100000.0000000007
100000.00000000284
100000.00000001218
100000.00000005105
100000.00000021112
100000.00000086737
100000.00000353425
100000.00001428892
100000.00005731954
100000.00022816155
100000.00090126916
100000.00353321264
100000.01374732706
100000.05309198277
100000.20353054833
100000.77454454455
100002.92618760435
100010.97514824913
100040.86520930132
100151.01112512323
100553.22221454444
102002.03116554505
107084.11934712066
123848.20328382422
171774.06581609897
278911.1531026132
457609.5985576392
680631.4464302226
890023.0182978308
1.038683730833645e6
1.1210011349712333e6
1.159234804051151e6
1.1758176603472643e6
1.1835143143290917e6
1.18786990672584e6
1.1909372421429502e6
1.1934046274568457e6
1.1956586133319926e6
1.1998916361288875e6
1.2292295064382865e6
100000.0
100000.0
100000.0
100000.0
100000.0
100000.0
100000.0
100000.00000000016
100000.00000000055
100000.00000000255
100000.00000001052
100000.00000004398
100000.0000001816
100000.00000074423
100000.00000302601
100000.0000122062
100000.00004884881
100000.00019397314
100000.00076431128
100000.0029885989
100000.01159733222
100000.04466470986
100000.17072921085
100000.64774868758
100002.4393562527
100009.11841852234
100033.83126536777
100124.55509898896
100454.61717756643
101640.07690072567
105797.86263463175
119625.67889511536
160194.68536146093
254844.84671552954
420409.3468470624
636983.9174823574
850173.2605956454
1.0088526613134986e6
1.1005661534920533e6
1.1444529988128864e6
1.1634893203061102e6
1.1718382213689145e6
1.1760375848336285e6
1.1786632760675044e6
1.1806618887422187e6
1.1826207964363976e6
1.187283149838302e6
1.2196241287194402e6
100000.0
100000.0
100000.0
100000.0
100000.0
100000.0
100000.0
100000.00000000012
100000.00000000061
100000.0000000021
100000.00000000898
100000.00000003731
100000.00000015381
100000.00000062922
100000.00000255201
100000.00001026722
100000.00004098103
100000.0001622909
100000.00063769397
100000.00248633025
100000.00961949637
100000.03693254126
100000.14071577851
100000.53206325619
100001.99653105816
100007.43494547262
100027.47524299385
100100.7318524439
100366.11136573592
101315.82637110098
104643.12163985646
115781.37089603509
149267.1853852249
230953.58307929384
381532.8003663466
589086.3358209459
804396.8831223389
973284.4797578347
1.0757117205222955e6
1.1264849753742814e6
1.148646890454641e6
1.1578286598834791e6
1.161744487113649e6
1.1636338130226862e6
1.1647958538441104e6
1.1661163134112053e6
1.1711157398763043e6
1.2074755195207354e6
100000.0
100000.0
100000.0
100000.0
100000.0
100000.0
100000.0
100000.00000000015
100000.00000000044
100000.00000000176
100000.00000000754
100000.00000003124
100000.00000012846
100000.00000052415
100000.00000211988
100000.00000850526
100000.00003384998
100000.00013365094
100000.00052354351
100000.0020347732
100000.00784647086
100000.03002181619
100000.11397486701
100000.42933047177
100001.60464953077
100005.95059980388
100021.89266370005
100079.89103733476
100288.98161539326
101034.02083252974
103638.58954056381
112397.4229680438
139310.18802870554
207979.89058372172
341954.1048758519
537593.029529134
752592.8143600627
931262.6473587898
1.0455967021648426e6
1.1046563055621516e6
1.1307875997551426e6
1.1410448364051864e6
1.1444930874228687e6
1.1451898863504725e6
1.144894133208711e6
1.144913180722296e6
1.149901229487762e6
1.1917993148351538e6
100000.0
100000.0
100000.0
100000.0
100000.0
100000.0
100000.0
100000.00000000015
100000.00000000038
100000.00000000137
100000.00000000617
100000.00000002579
100000.00000010573
100000.00000043042
100000.0000017352
100000.00000694029
100000.00002753364
100000.00010835746
100000.00042303464
100000.00163841693
100000.00629521221
100000.02399578971
100000.09073919717
100000.34039328349
100001.26671066807
100004.67582960438
100017.11905403792
100062.15054101548
100223.61678931056
100796.04391630495
102790.5996901521
109514.49047565082
130554.89292060347
186626.2338403519
302793.71252466214
483477.21957405464
694955.668219169
882158.0215045172
1.0092945774038094e6
1.0781736431917225e6
1.1093281572742397e6
1.1210021627612317e6
1.1237355840306585e6
1.122554855343984e6
1.1197703156486766e6
1.117226684798327e6
1.1212021724070867e6
1.170723195584254e6
100000.0
100000.0
100000.0
100000.0
100000.0
100000.0
100000.0
100000.00000000003
100000.00000000015
100000.00000000114
100000.00000000493
100000.00000002103
100000.00000008593
100000.00000034826
100000.0000013997
100000.00000557947
100000.0000220591
100000.00008650614
100000.00033649296
100000.00129831582
100000.00496887793
100000.01886266471
100000.07102340588
100000.26523681336
100000.98236298922
100003.60808876033
100013.13989692059
100047.43682112762
100169.67786796848
100600.52542110323
102095.11528282712
107135.01598415915
123128.74283863495
167489.85061434968
265257.87363415945
428053.8381440384
632094.2149899383
825553.5574163791
965848.1541921464
1.0461317449339533e6
1.0836121645953844e6
1.0972003811184673e6
1.0989510302681816e6
1.0949339978570875e6
1.088025715416107e6
1.0806117315666485e6
1.0810287762240774e6
1.1397862271528519e6
100000.0
100000.0
100000.0
100000.0
100000.0
100000.0
100000.0
100000.00000000004
100000.0000000002
100000.00000000096
100000.000000004
100000.00000001682
100000.00000006882
100000.00000027784
100000.00000111287
100000.00000442006
100000.00001741142
100000.00006802022
100000.0002635468
100000.00101272276
100000.00385946714
100000.01458654548
100000.05466919857
100000.20317329529
100000.74865718387
100002.73488028487
100009.90285305887
100035.53358139587
100126.28931883298
100444.07252646615
101540.33568738424
105230.35228201782
117052.82627753454
150997.50536106914
230539.7665380137
372954.93724087114
565142.8340110945
761414.7536821846
914372.8771615452
1.0075410792173385e6
1.0529342274266793e6
1.0692134948558572e6
1.0697908626960982e6
1.0617195067394564e6
1.0482324948805064e6
1.0318498089267532e6
1.0223838404988522e6
1.0832491075406857e6
100000.0
100000.0
100000.0
100000.0
100000.0
100000.0
100000.0
99999.99999999997
100000.0000000002
100000.00000000077
100000.00000000325
100000.0000000135
100000.00000005438
100000.00000021854
100000.0000008724
100000.00000345166
100000.00001354273
100000.00005269184
100000.00020329877
100000.00077780685
100000.00295078309
100000.01109957654
100000.04139474788
100000.15304174754
100000.56084788348
100002.03695463111
100007.33043496017
100026.13164631318
100092.23370729375
100322.01799519366
101109.47890940338
103750.08742230503
112254.46906545537
137356.5277495069
199687.13731795576
320035.5359827078
495830.9000923837
690294.8789882546
854227.9558366645
961401.2740941249
1.01658534181333e6
1.0367935935228366e6
1.0363105642675441e6
1.0227028008011507e6
997998.1811308797
959525.1240508135
898395.6378926425
787361.6850115127
100000.0
100000.0
100000.0
100000.0
100000.0
100000.0
100000.0
100000.00000000003
100000.0000000001
100000.00000000054
100000.00000000252
100000.00000001045
100000.00000004223
100000.00000016968
100000.00000067429
100000.00000265743
100000.00001038295
100000.00004022362
100000.00015450016
100000.00058836897
100000.00222135642
100000.00831379932
100000.03084242537
100000.11339878544
100000.41315113165
100001.49129603653
100005.33170177862
100018.87446655825
100066.12774917501
100229.09765871095
100783.36684301628
102631.73752769016
108592.02177271347
126539.48156003428
173457.15299782794
271195.9031711516
426460.99789264373
613534.9461268585
785256.3109796001
906826.255908444
973932.621428118
1.000168722296463e6
1.0001822740750135e6
982466.4810138195
949309.4806663155
897625.2748377402
818669.8867749489
695549.3760712586
100000.0
100000.0
100000.0
100000.0
100000.0
100000.0
100000.0
100000.0
100000.00000000006
100000.00000000044
100000.00000000194
100000.00000000809
100000.00000003252
100000.00000012993
100000.00000051416
100000.00000201777
100000.00000784878
100000.00003026742
100000.00011570986
100000.00043848997
100000.00164706411
100000.00613165484
100000.02262062687
100000.08268392952
100000.29939289035
100001.07364790223
100003.81202317856
100013.39562544427
100046.56578175805
100160.00007855601
100542.55494303562
101809.29585674164
105885.26311556151
118311.98367767596
152197.31441550862
228129.2062097303
359746.7143927961
533382.5300620607
708051.9281084067
843154.3941362628
924216.2142745889
959320.279881176
962594.025772868
943838.2491262015
906882.4029826963
850681.7469434587
770697.771913114
660959.0738758984
100000.0
100000.0
100000.0
100000.0
100000.0
100000.0
100000.0
100000.0
100000.00000000015
100000.0000000003
100000.00000000148
100000.00000000617
100000.0000000246
100000.00000009812
100000.00000038701
100000.00000151122
100000.00000585154
100000.00002245745
100000.00008542709
100000.00032206575
100000.00120327141
100000.00445448562
100000.01633721167
100000.05935003898
100000.21351357481
100000.76044810284
100002.68044213741
100009.34664614237
100032.22438290672
100109.76281711471
100368.87783484756
101219.73318186023
103944.04295743883
112297.50614305242
135799.4941966975
192041.4375146747
298491.66526050115
452948.69239640323
624231.1409962302
770178.4062987297
866484.8011721697
913589.9686394327
923561.3533268888
907363.272424693
870881.3221696593
815694.4130771307
741018.158607726
646502.1288112467
100000.0
100000.0
100000.0
100000.0
100000.0
100000.0
100000.0
100000.0
100000.00000000009
100000.00000000022
100000.00000000109
100000.00000000458
100000.00000001835
100000.00000007318
100000.00000028728
100000.00000111698
100000.00000430376
100000.0000164348
100000.00006219387
100000.00023321439
100000.00086643547
100000.00318879
100000.01162369951
100000.04195601985
100000.14991972432
100000.53014930023
100001.85457998543
100006.41503684907
100021.92840748427
100074.01671349842
100246.3995823084
100807.1690033582
102589.93243120621
108057.97102847118
123756.68017977738
163428.17645458606
245145.75087018317
375930.17899078043
536616.4731662285
688534.6445745558
799814.70083876
861709.2095953253
882028.7745615905
872065.8741093525
839649.9487835808
788837.3093586577
721603.0986894554
640251.4397925921
100000.0
100000.0
100000.0
100000.0
100000.0
100000.0
100000.0
100000.0
100000.0000000001
100000.00000000025
100000.00000000093
100000.00000000338
100000.00000001368
100000.00000005397
100000.00000021044
100000.00000081488
100000.00000312393
100000.00001186706
100000.00004466632
100000.00016655216
100000.00061516924
100000.0022502914
100000.00815061525
100000.02922395917
100000.10369377089
100000.36397720939
100001.26333064058
100004.33369288659
100014.68335886506
100049.09869216911
100161.84379112636
100524.90895237916
101669.07248330451
105165.07537944494
115308.32360538385
142003.67585282054
201342.41787098304
306076.9346756157
449175.36781414534
600153.1809153272
723813.1089245412
802097.2271939258
836178.507467891
836055.4763294638
810867.5381007344
766750.8970659106
707725.1004437181
637486.5655249798
100000.0
100000.0
100000.0
100000.0
100000.0
100000.0
100000.0
100000.0
100000.0000000001
100000.00000000012
100000.00000000058
100000.00000000256
100000.00000001001
100000.0000000392
100000.00000015237
100000.00000058676
100000.00000223836
100000.00000845722
100000.00003165497
100000.00011735232
100000.00043083647
100000.00156610197
100000.00563522846
100000.02006613574
100000.07068545402
100000.2462276889
100000.84777193282
100002.88345434536
100009.68159063153
100032.06398861836
100104.62705464872
100335.81844109615
101057.19350640407
103246.54235189843
109617.22657147575
126833.28330744288
167574.95407149143
246491.42278858807
366567.9821680524
508527.4003081593
639282.2740284702
733390.571506559
783824.4249744752
796904.7948467415
781925.7927970709
746516.6729719928
696274.7634255257
635841.7600272845
100000.0
100000.0
100000.0
100000.0
100000.0
100000.0
100000.0
100000.0
99999.99999999997
100000.00000000007
100000.00000000033
100000.00000000172
100000.0000000072
100000.0000000282
100000.00000010907
100000.00000041742
100000.00000158371
100000.00000595096
100000.00002214598
100000.00008161097
100000.00029776132
100000.00107537521
100000.0038433564
100000.0135889226
100000.04751415038
100000.16422360277
100000.5607902443
100001.89084271289
100006.29055597611