# vtk DataFile Version 2.0
JuliaCFD
ASCII
DATASET UNSTRUCTURED_GRID

POINTS 32898 float
0.0 0.0 -0.05
0.0125 0.0 -0.05
0.025 0.0 -0.05
0.0375 0.0 -0.05
0.05 0.0 -0.05
0.0625 0.0 -0.05
0.075 0.0 -0.05
0.0875 0.0 -0.05
0.1 0.0 -0.05
0.1125 0.0 -0.05
0.125 0.0 -0.05
0.1375 0.0 -0.05
0.15 0.0 -0.05
0.1625 0.0 -0.05
0.175 0.0 -0.05
0.1875 0.0 -0.05
0.2 0.0 -0.05
0.2125 0.0 -0.05
0.225 0.0 -0.05
0.2375 0.0 -0.05
0.25 0.0 -0.05
0.2625 0.0 -0.05
0.275 0.0 -0.05
0.2875 0.0 -0.05
0.3 0.0 -0.05
0.3125 0.0 -0.05
0.325 0.0 -0.05
0.3375 0.0 -0.05
0.35 0.0 -0.05
0.3625 0.0 -0.05
0.375 0.0 -0.05
0.3875 0.0 -0.05
0.4 0.0 -0.05
0.4125 0.0 -0.05
0.425 0.0 -0.05
0.4375 0.0 -0.05
0.45 0.0 -0.05
0.4625 0.0 -0.05
0.475 0.0 -0.05
0.4875 0.0 -0.05
0.5 0.0 -0.05
0.5125 0.0 -0.05
0.525 0.0 -0.05
0.5375 0.0 -0.05
0.55 0.0 -0.05
0.5625 0.0 -0.05
0.575 0.0 -0.05
0.5875 0.0 -0.05
0.6 0.0 -0.05
0.0 0.0125 -0.05
0.0125 0.0125 -0.05
0.025 0.0125 -0.05
0.0375 0.0125 -0.05
0.05 0.0125 -0.05
0.0625 0.0125 -0.05
0.075 0.0125 -0.05
0.0875 0.0125 -0.05
0.1 0.0125 -0.05
0.1125 0.0125 -0.05
0.125 0.0125 -0.05
0.1375 0.0125 -0.05
0.15 0.0125 -0.05
0.1625 0.0125 -0.05
0.175 0.0125 -0.05
0.1875 0.0125 -0.05
0.2 0.0125 -0.05
0.2125 0.0125 -0.05
0.225 0.0125 -0.05
0.2375 0.0125 -0.05
0.25 0.0125 -0.05
0.2625 0.0125 -0.05
0.275 0.0125 -0.05
0.2875 0.0125 -0.05
0.3 0.0125 -0.05
0.3125 0.0125 -0.05
0.325 0.0125 -0.05
0.3375 0.0125 -0.05
0.35 0.0125 -0.05
0.3625 0.0125 -0.05
0.375 0.0125 -0.05
0.3875 0.0125 -0.05
0.4 0.0125 -0.05
0.4125 0.0125 -0.05
0.425 0.0125 -0.05
0.4375 0.0125 -0.05
0.45 0.0125 -0.05
0.4625 0.0125 -0.05
0.475 0.0125 -0.05
0.4875 0.0125 -0.05
0.5 0.0125 -0.05
0.5125 0.0125 -0.05
0.525 0.0125 -0.05
0.5375 0.0125 -0.05
0.55 0.0125 -0.05
0.5625 0.0125 -0.05
0.575 0.0125 -0.05
0.5875 0.0125 -0.05
0.6 0.0125 -0.05
0.0 0.025 -0.05
0.0125 0.025 -0.05
0.025 0.025 -0.05
0.0375 0.025 -0.05
0.05 0.025 -0.05
0.0625 0.025 -0.05
0.075 0.025 -0.05
0.0875 0.025 -0.05
0.1 0.025 -0.05
0.1125 0.025 -0.05
0.125 0.025 -0.05
0.1375 0.025 -0.05
0.15 0.025 -0.05
0.1625 0.025 -0.05
0.175 0.025 -0.05
0.1875 0.025 -0.05
0.2 0.025 -0.05
0.2125 0.025 -0.05
0.225 0.025 -0.05
0.2375 0.025 -0.05
0.25 0.025 -0.05
0.2625 0.025 -0.05
0.275 0.025 -0.05
0.2875 0.025 -0.05
0.3 0.025 -0.05
0.3125 0.025 -0.05
0.325 0.025 -0.05
0.3375 0.025 -0.05
0.35 0.025 -0.05
0.3625 0.025 -0.05
0.375 0.025 -0.05
0.3875 0.025 -0.05
0.4 0.025 -0.05
0.4125 0.025 -0.05
0.425 0.025 -0.05
0.4375 0.025 -0.05
0.45 0.025 -0.05
0.4625 0.025 -0.05
0.475 0.025 -0.05
0.4875 0.025 -0.05
0.5 0.025 -0.05
0.5125 0.025 -0.05
0.525 0.025 -0.05
0.5375 0.025 -0.05
0.55 0.025 -0.05
0.5625 0.025 -0.05
0.575 0.025 -0.05
0.5875 0.025 -0.05
0.6 0.025 -0.05
0.0 0.0375 -0.05
0.0125 0.0375 -0.05
0.025 0.0375 -0.05
0.0375 0.0375 -0.05
0.05 0.0375 -0.05
0.0625 0.0375 -0.05
0.075 0.0375 -0.05
0.0875 0.0375 -0.05
0.1 0.0375 -0.05
0.1125 0.0375 -0.05
0.125 0.0375 -0.05
0.1375 0.0375 -0.05
0.15 0.0375 -0.05
0.1625 0.0375 -0.05
0.175 0.0375 -0.05
0.1875 0.0375 -0.05
0.2 0.0375 -0.05
0.2125 0.0375 -0.05
0.225 0.0375 -0.05
0.2375 0.0375 -0.05
0.25 0.0375 -0.05
0.2625 0.0375 -0.05
0.275 0.0375 -0.05
0.2875 0.0375 -0.05
0.3 0.0375 -0.05
0.3125 0.0375 -0.05
0.325 0.0375 -0.05
0.3375 0.0375 -0.05
0.35 0.0375 -0.05
0.3625 0.0375 -0.05
0.375 0.0375 -0.05
0.3875 0.0375 -0.05
0.4 0.0375 -0.05
0.4125 0.0375 -0.05
0.425 0.0375 -0.05
0.4375 0.0375 -0.05
0.45 0.0375 -0.05
0.4625 0.0375 -0.05
0.475 0.0375 -0.05
0.4875 0.0375 -0.05
0.5 0.0375 -0.05
0.5125 0.0375 -0.05
0.525 0.0375 -0.05
0.5375 0.0375 -0.05
0.55 0.0375 -0.05
0.5625 0.0375 -0.05
0.575 0.0375 -0.05
0.5875 0.0375 -0.05
0.6 0.0375 -0.05
0.0 0.05 -0.05
0.0125 0.05 -0.05
0.025 0.05 -0.05
0.0375 0.05 -0.05
0.05 0.05 -0.05
0.0625 0.05 -0.05
0.075 0.05 -0.05
0.0875 0.05 -0.05
0.1 0.05 -0.05
0.1125 0.05 -0.05
0.125 0.05 -0.05
0.1375 0.05 -0.05
0.15 0.05 -0.05
0.1625 0.05 -0.05
0.175 0.05 -0.05
0.1875 0.05 -0.05
0.2 0.05 -0.05
0.2125 0.05 -0.05
0.225 0.05 -0.05
0.2375 0.05 -0.05
0.25 0.05 -0.05
0.2625 0.05 -0.05
0.275 0.05 -0.05
0.2875 0.05 -0.05
0.3 0.05 -0.05
0.3125 0.05 -0.05
0.325 0.05 -0.05
0.3375 0.05 -0.05
0.35 0.05 -0.05
0.3625 0.05 -0.05
0.375 0.05 -0.05
0.3875 0.05 -0.05
0.4 0.05 -0.05
0.4125 0.05 -0.05
0.425 0.05 -0.05
0.4375 0.05 -0.05
0.45 0.05 -0.05
0.4625 0.05 -0.05
0.475 0.05 -0.05
0.4875 0.05 -0.05
0.5 0.05 -0.05
0.5125 0.05 -0.05
0.525 0.05 -0.05
0.5375 0.05 -0.05
0.55 0.05 -0.05
0.5625 0.05 -0.05
0.575 0.05 -0.05
0.5875 0.05 -0.05
0.6 0.05 -0.05
0.0 0.0625 -0.05
0.0125 0.0625 -0.05
0.025 0.0625 -0.05
0.0375 0.0625 -0.05
0.05 0.0625 -0.05
0.0625 0.0625 -0.05
0.075 0.0625 -0.05
0.0875 0.0625 -0.05
0.1 0.0625 -0.05
0.1125 0.0625 -0.05
0.125 0.0625 -0.05
0.1375 0.0625 -0.05
0.15 0.0625 -0.05
0.1625 0.0625 -0.05
0.175 0.0625 -0.05
0.1875 0.0625 -0.05
0.2 0.0625 -0.05
0.2125 0.0625 -0.05
0.225 0.0625 -0.05
0.2375 0.0625 -0.05
0.25 0.0625 -0.05
0.2625 0.0625 -0.05
0.275 0.0625 -0.05
0.2875 0.0625 -0.05
0.3 0.0625 -0.05
0.3125 0.0625 -0.05
0.325 0.0625 -0.05
0.3375 0.0625 -0.05
0.35 0.0625 -0.05
0.3625 0.0625 -0.05
0.375 0.0625 -0.05
0.3875 0.0625 -0.05
0.4 0.0625 -0.05
0.4125 0.0625 -0.05
0.425 0.0625 -0.05
0.4375 0.0625 -0.05
0.45 0.0625 -0.05
0.4625 0.0625 -0.05
0.475 0.0625 -0.05
0.4875 0.0625 -0.05
0.5 0.0625 -0.05
0.5125 0.0625 -0.05
0.525 0.0625 -0.05
0.5375 0.0625 -0.05
0.55 0.0625 -0.05
0.5625 0.0625 -0.05
0.575 0.0625 -0.05
0.5875 0.0625 -0.05
0.6 0.0625 -0.05
0.0 0.075 -0.05
0.0125 0.075 -0.05
0.025 0.075 -0.05
0.0375 0.075 -0.05
0.05 0.075 -0.05
0.0625 0.075 -0.05
0.075 0.075 -0.05
0.0875 0.075 -0.05
0.1 0.075 -0.05
0.1125 0.075 -0.05
0.125 0.075 -0.05
0.1375 0.075 -0.05
0.15 0.075 -0.05
0.1625 0.075 -0.05
0.175 0.075 -0.05
0.1875 0.075 -0.05
0.2 0.075 -0.05
0.2125 0.075 -0.05
0.225 0.075 -0.05
0.2375 0.075 -0.05
0.25 0.075 -0.05
0.2625 0.075 -0.05
0.275 0.075 -0.05
0.2875 0.075 -0.05
0.3 0.075 -0.05
0.3125 0.075 -0.05
0.325 0.075 -0.05
0.3375 0.075 -0.05
0.35 0.075 -0.05
0.3625 0.075 -0.05
0.375 0.075 -0.05
0.3875 0.075 -0.05
0.4 0.075 -0.05
0.4125 0.075 -0.05
0.425 0.075 -0.05
0.4375 0.075 -0.05
0.45 0.075 -0.05
0.4625 0.075 -0.05
0.475 0.075 -0.05
0.4875 0.075 -0.05
0.5 0.075 -0.05
0.5125 0.075 -0.05
0.525 0.075 -0.05
0.5375 0.075 -0.05
0.55 0.075 -0.05
0.5625 0.075 -0.05
0.575 0.075 -0.05
0.5875 0.075 -0.05
0.6 0.075 -0.05
0.0 0.0875 -0.05
0.0125 0.0875 -0.05
0.025 0.0875 -0.05
0.0375 0.0875 -0.05
0.05 0.0875 -0.05
0.0625 0.0875 -0.05
0.075 0.0875 -0.05
0.0875 0.0875 -0.05
0.1 0.0875 -0.05
0.1125 0.0875 -0.05
0.125 0.0875 -0.05
0.1375 0.0875 -0.05
0.15 0.0875 -0.05
0.1625 0.0875 -0.05
0.175 0.0875 -0.05
0.1875 0.0875 -0.05
0.2 0.0875 -0.05
0.2125 0.0875 -0.05
0.225 0.0875 -0.05
0.2375 0.0875 -0.05
0.25 0.0875 -0.05
0.2625 0.0875 -0.05
0.275 0.0875 -0.05
0.2875 0.0875 -0.05
0.3 0.0875 -0.05
0.3125 0.0875 -0.05
0.325 0.0875 -0.05
0.3375 0.0875 -0.05
0.35 0.0875 -0.05
0.3625 0.0875 -0.05
0.375 0.0875 -0.05
0.3875 0.0875 -0.05
0.4 0.0875 -0.05
0.4125 0.0875 -0.05
0.425 0.0875 -0.05
0.4375 0.0875 -0.05
0.45 0.0875 -0.05
0.4625 0.0875 -0.05
0.475 0.0875 -0.05
0.4875 0.0875 -0.05
0.5 0.0875 -0.05
0.5125 0.0875 -0.05
0.525 0.0875 -0.05
0.5375 0.0875 -0.05
0.55 0.0875 -0.05
0.5625 0.0875 -0.05
0.575 0.0875 -0.05
0.5875 0.0875 -0.05
0.6 0.0875 -0.05
0.0 0.1 -0.05
0.0125 0.1 -0.05
0.025 0.1 -0.05
0.0375 0.1 -0.05
0.05 0.1 -0.05
0.0625 0.1 -0.05
0.075 0.1 -0.05
0.0875 0.1 -0.05
0.1 0.1 -0.05
0.1125 0.1 -0.05
0.125 0.1 -0.05
0.1375 0.1 -0.05
0.15 0.1 -0.05
0.1625 0.1 -0.05
0.175 0.1 -0.05
0.1875 0.1 -0.05
0.2 0.1 -0.05
0.2125 0.1 -0.05
0.225 0.1 -0.05
0.2375 0.1 -0.05
0.25 0.1 -0.05
0.2625 0.1 -0.05
0.275 0.1 -0.05
0.2875 0.1 -0.05
0.3 0.1 -0.05
0.3125 0.1 -0.05
0.325 0.1 -0.05
0.3375 0.1 -0.05
0.35 0.1 -0.05
0.3625 0.1 -0.05
0.375 0.1 -0.05
0.3875 0.1 -0.05
0.4 0.1 -0.05
0.4125 0.1 -0.05
0.425 0.1 -0.05
0.4375 0.1 -0.05
0.45 0.1 -0.05
0.4625 0.1 -0.05
0.475 0.1 -0.05
0.4875 0.1 -0.05
0.5 0.1 -0.05
0.5125 0.1 -0.05
0.525 0.1 -0.05
0.5375 0.1 -0.05
0.55 0.1 -0.05
0.5625 0.1 -0.05
0.575 0.1 -0.05
0.5875 0.1 -0.05
0.6 0.1 -0.05
0.0 0.1125 -0.05
0.0125 0.1125 -0.05
0.025 0.1125 -0.05
0.0375 0.1125 -0.05
0.05 0.1125 -0.05
0.0625 0.1125 -0.05
0.075 0.1125 -0.05
0.0875 0.1125 -0.05
0.1 0.1125 -0.05
0.1125 0.1125 -0.05
0.125 0.1125 -0.05
0.1375 0.1125 -0.05
0.15 0.1125 -0.05
0.1625 0.1125 -0.05
0.175 0.1125 -0.05
0.1875 0.1125 -0.05
0.2 0.1125 -0.05
0.2125 0.1125 -0.05
0.225 0.1125 -0.05
0.2375 0.1125 -0.05
0.25 0.1125 -0.05
0.2625 0.1125 -0.05
0.275 0.1125 -0.05
0.2875 0.1125 -0.05
0.3 0.1125 -0.05
0.3125 0.1125 -0.05
0.325 0.1125 -0.05
0.3375 0.1125 -0.05
0.35 0.1125 -0.05
0.3625 0.1125 -0.05
0.375 0.1125 -0.05
0.3875 0.1125 -0.05
0.4 0.1125 -0.05
0.4125 0.1125 -0.05
0.425 0.1125 -0.05
0.4375 0.1125 -0.05
0.45 0.1125 -0.05
0.4625 0.1125 -0.05
0.475 0.1125 -0.05
0.4875 0.1125 -0.05
0.5 0.1125 -0.05
0.5125 0.1125 -0.05
0.525 0.1125 -0.05
0.5375 0.1125 -0.05
0.55 0.1125 -0.05
0.5625 0.1125 -0.05
0.575 0.1125 -0.05
0.5875 0.1125 -0.05
0.6 0.1125 -0.05
0.0 0.125 -0.05
0.0125 0.125 -0.05
0.025 0.125 -0.05
0.0375 0.125 -0.05
0.05 0.125 -0.05
0.0625 0.125 -0.05
0.075 0.125 -0.05
0.0875 0.125 -0.05
0.1 0.125 -0.05
0.1125 0.125 -0.05
0.125 0.125 -0.05
0.1375 0.125 -0.05
0.15 0.125 -0.05
0.1625 0.125 -0.05
0.175 0.125 -0.05
0.1875 0.125 -0.05
0.2 0.125 -0.05
0.2125 0.125 -0.05
0.225 0.125 -0.05
0.2375 0.125 -0.05
0.25 0.125 -0.05
0.2625 0.125 -0.05
0.275 0.125 -0.05
0.2875 0.125 -0.05
0.3 0.125 -0.05
0.3125 0.125 -0.05
0.325 0.125 -0.05
0.3375 0.125 -0.05
0.35 0.125 -0.05
0.3625 0.125 -0.05
0.375 0.125 -0.05
0.3875 0.125 -0.05
0.4 0.125 -0.05
0.4125 0.125 -0.05
0.425 0.125 -0.05
0.4375 0.125 -0.05
0.45 0.125 -0.05
0.4625 0.125 -0.05
0.475 0.125 -0.05
0.4875 0.125 -0.05
0.5 0.125 -0.05
0.5125 0.125 -0.05
0.525 0.125 -0.05
0.5375 0.125 -0.05
0.55 0.125 -0.05
0.5625 0.125 -0.05
0.575 0.125 -0.05
0.5875 0.125 -0.05
0.6 0.125 -0.05
0.0 0.1375 -0.05
0.0125 0.1375 -0.05
0.025 0.1375 -0.05
0.0375 0.1375 -0.05
0.05 0.1375 -0.05
0.0625 0.1375 -0.05
0.075 0.1375 -0.05
0.0875 0.1375 -0.05
[...]
CELL_DATA 16128
SCALARS P float 1
LOOKUP_TABLE default
99999.99999999985
99999.9999999991
100000.00000000342
99999.99999998487
100000.00000005441
99999.99999981065
100000.00000062527
99999.99999799086
100000.0000063062
99999.99998053609
100000.00005925323
99999.9998216254
100000.0005319297
99999.99842649393
100000.0046219629
99999.98650782516
100000.0391666272
99999.88687644525
100000.32521478733
99999.06909485866
100002.65329173893
99992.47841058641
100020.9061717596
99950.62493591172
99881.68996546297
108955.50323727478
217955.53873050603
497896.2468147106
822505.8375351169
1.0109607715813841e6
1.0664629284311747e6
1.0829104274256264e6
1.0949081902892352e6
1.1062661042854975e6
1.1171056940703555e6
1.1273931937010647e6
1.137106413533343e6
1.1462277098461948e6
1.1547356914499432e6
1.1626097695002707e6
1.1698077464461008e6
1.1763281088689128e6
1.1820262462157628e6
1.187156699124747e6
1.1907768232822304e6
1.195468068154502e6
1.1933786163268995e6
1.2075164178101618e6
99999.9999999997
99999.99999999932
100000.00000000275
99999.99999998689
100000.00000004888
99999.99999982669
100000.00000057856
99999.9999981255
100000.00000592072
99999.99998163436
100000.0000561403
99999.9998304023
100000.00050731645
99999.99849512013
100000.00443179917
99999.98703120802
100000.03773704926
99999.89074686111
100000.31484798992
99999.09647846394
100002.58237327152
99992.65622102689
100020.49411101954
99951.2098671484
99887.88083293587
108638.8551660548
216500.01483075065
496732.67290079355
824812.6988842471
1.0174189902913697e6
1.075105921390556e6
1.0924515198431558e6
1.1049205782375224e6
1.1165771113412809e6
1.1276425730006346e6
1.1381309092922497e6
1.1480407957705315e6
1.1573613779129463e6
1.1660707550686696e6
1.1741438110701195e6
1.1815315323384255e6
1.1882235951130837e6
1.1940662525054335e6
1.199302690337416e6
1.20298199925104e6
1.2076865599242444e6
1.2055016746647719e6
1.2198405440040152e6
99999.9999999996
99999.99999999987
100000.00000000108
99999.99999999108
100000.00000003629
99999.99999986331
100000.00000047206
99999.99999843398
100000.00000503371
99999.9999841733
100000.00004890587
99999.99985092133
100000.0004493844
99999.99865792773
100000.00397640321
99999.98829885332
100000.03422612375
99999.90041969444
100000.28834636697
99999.16866504257
100002.38695937542
99993.1813239498
100019.11309787251
99954.2682194996
99895.16436703342
107921.03513597698
212225.34055725217
488836.5504809528
816967.4024499174
1.0121642998811442e6
1.0712237151945801e6
1.0886551526718822e6
1.1009656952997537e6
1.1124440764453763e6
1.1233251420967816e6
1.1336205459238433e6
1.1433284802756319e6
1.1524395176785714e6
1.160934558655472e6
1.1687919869882297e6
1.1759677402883703e6
1.1824554290191927e6
1.1881113342758005e6
1.1931753887586487e6
1.19672954416213e6
1.201305569558326e6
1.19906017617954e6
1.213600390307599e6
99999.99999999923
100000.00000000055
99999.9999999992
99999.9999999971
100000.0000000189
99999.99999991486
100000.00000032214
99999.99999886873
100000.00000377765
99999.99998778614
100000.0000385615
99999.99988041367
100000.00036565318
99999.99889466341
100000.00330983238
99999.9901679158
100000.02900725364
99999.9149297897
100000.24817990749
99999.27935555742
100002.08336643474
99994.0089124736
100016.90261196783
99959.28295210532
99906.17215114157
106860.45989921088
205582.30311835234
476667.33110980294
805898.4314476608
1.006641212184691e6
1.0688642114949068e6
1.0869515351652687e6
1.099362220642846e6
1.110860991345924e6
1.1217388724635984e6
1.1320210498305259e6
1.1417140364735068e6
1.15081427517062e6
1.1593069933589965e6
1.1671733528340408e6
1.1743717460338909e6
1.1808945601156258e6
1.1866016782340945e6
1.191717304884269e6
1.1953467084258115e6
1.1999546473150349e6
1.1977318988431394e6
1.2126520703073945e6
99999.99999999917
100000.00000000147
99999.99999999712
100000.0000000041
99999.99999999849
99999.99999997533
100000.00000014511
99999.99999938632
100000.00000227345
99999.9999921372
100000.00002602825
99999.99991636789
100000.00026291586
99999.99918710774
100000.00248050717
99999.99251100236
100000.02241194296
99999.93342467975
100000.19651361441
99999.42312072344
100001.68503121933
99995.10635002001
100013.93741338048
99966.14578558477
99920.15602229346
105574.43045427959
196858.37368786737
460208.86272425554
790602.4004062024
998773.9932080089
1.065293556437532e6
1.0841367185672752e6
1.0965128918078726e6
1.1078919947128857e6
1.118635379982449e6
1.1287755397748332e6
1.1383229344030123e6
1.147277535127681e6
1.1556279262798831e6
1.1633579842912173e6
1.1704294765788266e6
1.1768348898441088e6
1.1824413383852793e6
1.1874592072833166e6
1.191028726626176e6
1.1955467494975717e6
1.1932576624567176e6
1.2085944689281264e6
99999.99999999901
100000.00000000237
99999.99999999485
100000.00000001094
99999.99999997718
100000.00000003818
99999.99999995864
99999.99999993513
100000.00000066687
99999.99999681924
100000.00001244183
99999.99995563432
100000.0001498616
99999.99951143564
100000.00155330866
99999.99515277293
100000.01490992191
99999.9546587961
100000.13660932917
99999.59155402434
100001.21314549264
99996.42204191038
100010.33302235414
99974.71395287305
99934.97681418291
104202.3405268523
186439.43039236614
439672.64500698843
770935.9635536693
988515.6729852245
1.0608493632369004e6
1.080803691098132e6
1.0931626101347369e6
1.104401617552283e6
1.1149886792202622e6
1.1249658749240497e6
1.1343481963484017e6
1.1431399614170496e6
1.1513340211993388e6
1.1589177865145297e6
1.1658571215729306e6
1.1721448115058509e6
1.17765550250383e6
1.1825842997389904e6
1.1861069323546262e6
1.1905510642167837e6
1.1881946811865105e6
1.2040694867956657e6
99999.99999999888
100000.0000000031
99999.99999999258
100000.00000001748
99999.99999995762
100000.0000000969
99999.99999978245
100000.00000045898
99999.99999911842
100000.00000137466
99999.999999103
99999.99999453273
100000.00003685748
99999.99983857077
100000.00060939761
99999.99786786613
100000.0071232768
99999.97692646072
100000.07310718694
99999.77215000623
100000.70102259074
99997.86864031137
100006.30949495296
99984.56921922637
99947.91826403653
102884.19348091372
174793.0646537445
415350.8748495252
746652.7636537884
975433.090390039
1.0552860544560112e6
1.076798659509438e6
1.0891495007754506e6
1.1001984124865604e6
1.1105731383552223e6
1.1203286151166214e6
1.1294839449238235e6
1.138047589440977e6
1.146016792771523e6
1.1533829152134333e6
1.160116673432712e6
1.1662122477876681e6
1.1715536060883466e6
1.1763227995157794e6
1.1797348618771648e6
1.1840544478464418e6
1.18157739943207e6
1.1981009342739016e6
99999.99999999856
100000.00000000329
99999.99999999089
100000.00000002256
99999.99999994207
100000.00000014552
99999.99999963521
100000.00000090347
99999.99999778511
100000.00000534608
99999.99998733435
100000.00002924388
99999.99993489815
100000.00013695803
99999.99973905772
100000.00039882206
99999.99978360487
99999.99815676246
100000.01184442945
99999.94853263583
100000.19435491928
99999.3195501437
100002.2098966479
99994.92382201698
99956.58029044328
101740.92571315644
162458.9414579788
387650.50452026696
717537.4425123332
959057.9406022179
1.0483971671673767e6
1.0720910369036288e6
1.0844842063116028e6
1.0953031140503397e6
1.105414457815436e6
1.1148928310539655e6
1.1237614577848709e6
1.1320328443013497e6
1.1397088187847487e6
1.1467852312123494e6
1.1532385709950163e6
1.1590659181887503e6
1.164162497265098e6
1.1687004887104095e6
1.1719369251657568e6
1.176082162588977e6
1.1734264083280978e6
1.1907453454961528e6
99999.99999999837
100000.00000000362
99999.99999998992
100000.00000002563
99999.99999993177
100000.00000017844
99999.99999953118
100000.00000122533
99999.99999679853
100000.00000834413
99999.99997829115
100000.00005635322
99999.99985405753
100000.00037694327
99999.99902939341
100000.00249032231
99999.99363767734
100000.01617037242
99999.95916609673
100000.10227498456
99999.74650481963
100000.6208159477
99998.47236052566
100004.6529150374
99959.94956367121
100856.13297829643
150030.0323538354
357115.6760778379
683426.5964918616
938831.9058012911
1.039894663228772e6
1.066615428263906e6
1.0791482059575222e6
1.0896986321387137e6
1.0994890999395861e6
1.1086256768265148e6
1.117135802369045e6
1.1250354222387578e6
1.1323305024713476e6
1.1390212470467498e6
1.1450901251103736e6
1.1505380711255867e6
1.1552728966834839e6
1.1594606327299955e6
1.162403288379597e6
1.166271366908547e6
1.1633273177035647e6
1.1816076799199183e6
99999.99999999865
100000.00000000348
99999.9999999898
100000.00000002659
99999.99999992768
100000.00000019353
99999.9999994794
100000.0000013975
99999.9999962415
100000.0000101124
99999.99997276193
100000.00007344324
99999.99980172097
100000.00053602617
99999.99854878447
100000.0039350344
99999.98931281093
100000.02907305195
99999.92078084033
100000.21620663373
99999.40901017055
100001.6181464078
99995.5550848987
100012.4718783869
99959.13185874803
100263.08463404
138121.20064501849
324450.9975091729
644260.2954967653
914118.0677983867
1.0293993024341369e6
1.0602869039630005e6
1.0731294638268773e6
1.0833797990859488e6
1.0927873151404667e6
1.1015095877183932e6
1.1095787842676362e6
1.1170131517411715e6
1.1238216696378787e6
1.130008113708843e6
1.1355606791564943e6
1.1404852203887445e6
1.144704186271587e6
1.148383606050876e6
1.150875460525501e6
1.15433280701698e6
1.1509621819562053e6
1.1704300406999944e6
99999.99999999875
100000.00000000336
99999.9999999903
100000.00000002557
99999.99999992963
100000.00000019044
99999.9999994806
100000.00000141552
99999.99999613318
100000.00001057709
99999.99997101286
100000.00007958665
99999.99978104171
100000.00060367901
99999.99833189967
100000.00462002157
99999.98717371075
100000.03569548119
99999.90041532669
100000.2785110832
99999.21917583329
100002.1942483636
99993.8253827087
100017.2480731581
99957.1623753245
99941.64409665967
127321.49096673464
290535.49242580077
600144.9013884657
884220.4000353768
1.0164104130945576e6
1.052981982252139e6
1.0664142623874873e6
1.0763465479885726e6
1.085304866598639e6
1.0935316682708762e6
1.101065194493405e6
1.1079238291248616e6
1.1141167794643382e6
1.1196482086729764e6
1.1245082878680737e6
1.1287038498281967e6
1.1321668221046599e6
1.1350620762563183e6
1.1367864683765941e6
1.139501345443929e6
1.1353508415138423e6
1.1561863085190488e6
99999.99999999859
100000.00000000292
99999.99999999134
100000.00000002272
99999.99999993696
100000.00000017174
99999.9999995278
100000.00000129727
99999.99999642532
100000.00000986367
99999.99997272472
100000.00007557384
99999.99979013295
100000.00058413365
99999.99837024503
100000.00455835457
99999.9872179208
100000.03593586166
99999.89870012618
100000.28632526864
99999.1885073996
100002.30578672526
99993.44222713851
100018.37217418174
99957.7492922826
99828.26393856523
118130.33162746731
256419.6067280408
551425.3428356961
848426.6075867946
1.0002777244309897e6
1.0445174834066082e6
1.0589836090668507e6
1.0686061414336883e6
1.077047562638477e6
1.0846902494294015e6
1.0915819915931514e6
1.09773829993365e6
1.1031645123767992e6
1.107860743655935e6
1.1118148465186046e6
1.1150322706882644e6
1.1174549638395624e6
1.1192520864701255e6
1.1198913296174938e6
1.121572434097647e6
1.116360228574206e6
1.1389993865077016e6
99999.99999999908
100000.0000000024
99999.99999999296
100000.00000001876
99999.99999994828
100000.00000014191
99999.99999960813
100000.00000108047
99999.99999701302
100000.00000826926
99999.99997706008
100000.00006376172
99999.99982239073
100000.00049583189
99999.99861255234
100000.0038918055
99999.98905594856
100000.03085565599
99999.91277171922
100000.2472746016
99999.29704509268
100002.00375313788
99994.2828716001
100016.03875570027
99963.53499118294
99838.04192477337
110884.90492488194
223296.7485403863
498759.1762221895
806079.9272043078
980177.4454407837
1.034620119130564e6
1.0508051671978887e6
1.0601729960669999e6
1.0680332314740943e6
1.0749977691308418e6
1.0811314501051065e6
1.0864421974962193e6
1.0909234632634197e6
1.0945597709175823e6
1.097319750855166e6
1.0991813716787861e6
1.10005572028158e6
1.1000643050365036e6
1.0986687235549358e6
1.0980453087334305e6
1.0901485102060721e6
1.114019453613922e6
99999.99999999916
100000.00000000175
99999.99999999472
100000.00000001401
99999.99999996083
100000.00000010691
99999.99999970457
100000.00000081245
99999.99999775681
100000.0000061966
99999.99998285099
100000.00004753363
99999.99986800797
100000.00036719069
99999.9989765023
100000.00285873188
99999.99199801133
100000.02244951192
99999.93686787161
100000.17798385437
99999.49690845548
100001.42564659512
99995.95684770243
100011.26463150507
99974.55960226394
99892.23659702687
105696.07043923109
192440.36822510802
443180.61839003774
756685.2965075654
955101.6334170277
1.0228854745476972e6
1.0418198977514794e6
1.0510675181234833e6
1.058294454452359e6
1.0644862775143187e6
1.069741107534468e6
1.0740547727388414e6
1.0774000371386176e6
1.079735007428629e6
1.080996405542226e6
1.0811260368646053e6
1.0800125770720143e6
1.0777650696966825e6
1.0739181019679464e6
1.0707708705561028e6
1.0602422449422737e6
1.0869890269503794e6
99999.99999999948
100000.00000000128
99999.99999999633
100000.00000000953
99999.99999997318
100000.00000007248
99999.99999980135
100000.00000054216
99999.99999851565
100000.00000406214
99999.99998887189
100000.00003050131
99999.99991633798
100000.00022962467
99999.99936931765
100000.0017334181
99999.99523238213
100000.0131222499
99999.96385645107
100000.09962720389
99999.72517471401
100000.75853119914
99997.90981472055
100005.62694443256
99988.1653505498
99939.8707809308
102418.74865776455
165097.31133939358
386137.922557658
700051.305021239
923874.9698103825
1.0087257656376195e6
1.031920159264141e6
1.0413119218271355e6
1.047879387751522e6
1.0532095246693476e6
1.0574651466088411e6
1.0606248467382006e6
1.0626254072622382e6
1.0633705291505142e6
1.0627177872933538e6
1.060486673169115e6
1.056369797821197e6
1.0501305896043978e6
1.0407517426408796e6
1.0296424313600337e6
1.007285860065527e6
1.0255609553766605e6
99999.99999999962
100000.00000000071
99999.99999999773
100000.00000000594
99999.99999998405
100000.0000000424
99999.99999988498
100000.00000030735
99999.99999917467
100000.00000220665
99999.99999410898
100000.00001567871
99999.9999584039
100000.00010990807
99999.99971101081
100000.00075523483
99999.9980413497
100000.00503021106
99999.98724469914
100000.03179901712
99999.92257038422
100000.18209259085
99999.59679573038
100000.74652295801
100000.38521411928
99963.96823549314
100681.80851337414
142330.64038763382
329482.8648442869
636461.359455565
885219.5521468159
991310.2869105914
1.0209160968169224e6
1.0309221937467234e6
1.0368524164264941e6
1.0412483588481866e6
1.0443976008225915e6
1.0462627089929308e6
1.0467329835237912e6
1.0456432810956867e6
1.042759083156797e6
1.0377768147479362e6
1.030246337192254e6
1.0198037343642997e6
1.0054730580972631e6
988996.8934191529
961187.7290716759
984528.7617644079
99999.99999999972
100000.00000000023
99999.99999999885
100000.0000000029
99999.99999999214
100000.00000001978
99999.99999994811
100000.00000013184
99999.99999966523
100000.00000083473
99999.99999795297
100000.00000488879
99999.9999887485
100000.00002440445
99999.99995243015
100000.00007214297
99999.99997842022
99999.99952446303
100000.0029318374
99999.98698773344
100000.05092530468
99999.81343011514
100000.65735944679
99997.7285330367
100007.95078289892
99971.43132735894
99985.22079821072
124820.12432742989
275388.4643342407
566852.3257285035
837890.8957287009
969509.1021440435
1.008485976637471e6
1.0198925177775429e6
1.0252900287177083e6
1.0287083069532893e6
1.0306665595747714e6
1.031120870758958e6
1.0298976565506599e6
1.0267340795884066e6
1.0212293623040695e6
1.0127841747671898e6
1.0003774515876736e6
982432.1126656345
955242.4376612173
913862.3583334696
834534.0892701518
704905.8869107224
99999.99999999983
100000.00000000019
99999.99999999965
100000.00000000077
99999.99999999753
100000.00000000493
99999.99999998853
100000.00000002062
99999.99999997069
99999.99999999646
100000.00000025379
99999.99999857797
100000.00000604533
99999.99997704454
100000.00008193147
99999.99971865494
100000.00094113925
99999.99690999713
100000.01000632413
99999.96793233637
100000.10195314843
99999.67782941938
100001.01342921116
99996.82393504164
100009.80746699277
99975.60381060957
99839.0407474017
112667.71020820328
226174.7523846455
492959.03537052934
780901.9120658201
941859.7699322603
994106.50884891
1.0081691963678543e6
1.013273477877255e6
1.015718672476006e6
1.0164407058441056e6
1.0154183254640289e6
1.0124234058948321e6
1.0070911363301983e6
998862.3822930506
986882.1141442594
969719.2150288317
945143.5109794687
908585.0110496357
854061.2858671201
761900.9593859959
624027.7324426554
99999.99999999981
99999.99999999993
99999.99999999981
99999.99999999993
100000.00000000033
99999.99999999718
100000.00000000949
99999.99999996541
100000.00000011589
99999.99999961638
100000.00000123733
99999.99999606045
100000.00001238429
99999.9999614275
100000.0001192054
99999.99963393672
100000.001118163
99999.99659976039
100000.01030053907
99999.96889750479
100000.09365104571
99999.71869587812
100000.843081327
99997.48248805823
100007.3401110724
99983.68214642379
99885.40994358469
105304.82281829124
184032.65083537003
417368.76483329455
713835.463361117
906589.931411711
976961.040561014
995607.4515379407
1.0008724457382627e6
1.0024217668053763e6
1.001912100488847e6
999414.5108090362
994666.8759122875
987230.4735574634
976440.0131936137
961302.4404155696
940236.6269844149
910911.8894963178
869065.9843301912
809734.4178914482
719711.3138330852
597587.8837431242
100000.0
99999.99999999985
100000.00000000016
99999.99999999937
100000.00000000157
99999.99999999432
100000.00000001628
99999.99999994985
100000.00000014965
99999.9999995506
100000.00000133605
99999.99999603984
100000.00001167707
99999.99996570956
100000.00010026172
99999.99970808068
100000.00084624821
99999.99755798106
100000.00701233791
99999.97997291473
100000.05684634783
99999.83979270353
100000.44756162993
99998.76632782946
100003.25042112524
99994.2466695697
99944.36196624828
101601.84979794052
150647.9454444719
343427.2492644865
637219.7092042969
861747.2288077183
955834.4287556508
981905.6863895581
988118.7394483293
988956.9713424579
987277.7949734968
983369.902054802
976976.0783297479
967622.4554518429
954602.6710445182
936900.2658118329
912985.4229501005
880747.7338442091
836700.2642401931
777276.0401289655
694402.0345989595
589745.1015437925
100000.00000000006
99999.99999999987
100000.0000000002
99999.99999999926
100000.00000000172
99999.99999999456
100000.00000001474
99999.99999995637
100000.00000012401
99999.99999964598
100000.00000100209
99999.99999717316
100000.0000079219
99999.99997794545
100000.00006090834
99999.9998333771
100000.0004505137
99999.99879978584
100000.00313611247
99999.99202001895
100000.01953798055
99999.9549924323
100000.09275596618
99999.85520787071
99999.97339094347
100002.38789721784
99972.31325224052
100191.63746652644
126763.50377159845
274945.5150576445
552892.178415566
805496.5580325483
929022.8874638187
966512.5987207834
974966.9793403161
975439.4966424612
972721.6889492256
967521.0777819226
959649.4605751486
948639.2313658579
933799.3902666254
914173.171866848
888399.516098159
854721.4666885502
810500.7827907217
753370.5874507815
678715.6636157903
588990.4729186805
100000.0
99999.99999999985
100000.0000000001
99999.99999999943
100000.00000000114
99999.99999999572
100000.0000000103
99999.9999999708
100000.00000007934
99999.99999978443
100000.00000057719
99999.99999846869
100000.00000399712
99999.99998976513
100000.00002551019
99999.99993882571
100000.0001380526
99999.9997206392
100000.000437809
99999.99987727254
99999.9968189418
100000.02014791618
99999.90776068576
100000.37292252791
99998.57936704822
100005.29686976862
99982.92177215203
99876.62689345362
111831.73455132467
215686.75883777885
464216.0088725292
736617.5473290439
894311.2415492065
948504.3453311808
961236.8489967322
961936.8696728551
958395.5161374719
952064.7854779725
942920.1889879395
930544.1579507057
914302.7172335633
893347.5693837858
866536.0556881616
832484.8469521753