# vtk DataFile Version 2.0
JuliaCFD
ASCII
DATASET UNSTRUCTURED_GRID

POINTS 32898 float
0.0 0.0 -0.05
0.0125 0.0 -0.05
0.025 0.0 -0.05
0.0375 0.0 -0.05
0.05 0.0 -0.05
0.0625 0.0 -0.05
0.075 0.0 -0.05
0.0875 0.0 -0.05
0.1 0.0 -0.05
0.1125 0.0 -0.05
0.125 0.0 -0.05
0.1375 0.0 -0.05
0.15 0.0 -0.05
0.1625 0.0 -0.05
0.175 0.0 -0.05
0.1875 0.0 -0.05
0.2 0.0 -0.05
0.2125 0.0 -0.05
0.225 0.0 -0.05
0.2375 0.0 -0.05
0.25 0.0 -0.05
0.2625 0.0 -0.05
0.275 0.0 -0.05
0.2875 0.0 -0.05
0.3 0.0 -0.05
0.3125 0.0 -0.05
0.325 0.0 -0.05
0.3375 0.0 -0.05
0.35 0.0 -0.05
0.3625 0.0 -0.05
0.375 0.0 -0.05
0.3875 0.0 -0.05
0.4 0.0 -0.05
0.4125 0.0 -0.05
0.425 0.0 -0.05
0.4375 0.0 -0.05
0.45 0.0 -0.05
0.4625 0.0 -0.05
0.475 0.0 -0.05
0.4875 0.0 -0.05
0.5 0.0 -0.05
0.5125 0.0 -0.05
0.525 0.0 -0.05
0.5375 0.0 -0.05
0.55 0.0 -0.05
0.5625 0.0 -0.05
0.575 0.0 -0.05
0.5875 0.0 -0.05
0.6 0.0 -0.05
0.0 0.0125 -0.05
0.0125 0.0125 -0.05
0.025 0.0125 -0.05
0.0375 0.0125 -0.05
0.05 0.0125 -0.05
0.0625 0.0125 -0.05
0.075 0.0125 -0.05
0.0875 0.0125 -0.05
0.1 0.0125 -0.05
0.1125 0.0125 -0.05
0.125 0.0125 -0.05
0.1375 0.0125 -0.05
0.15 0.0125 -0.05
0.1625 0.0125 -0.05
0.175 0.0125 -0.05
0.1875 0.0125 -0.05
0.2 0.0125 -0.05
0.2125 0.0125 -0.05
0.225 0.0125 -0.05
0.2375 0.0125 -0.05
0.25 0.0125 -0.05
0.2625 0.0125 -0.05
0.275 0.0125 -0.05
0.2875 0.0125 -0.05
0.3 0.0125 -0.05
0.3125 0.0125 -0.05
0.325 0.0125 -0.05
0.3375 0.0125 -0.05
0.35 0.0125 -0.05
0.3625 0.0125 -0.05
0.375 0.0125 -0.05
0.3875 0.0125 -0.05
0.4 0.0125 -0.05
0.4125 0.0125 -0.05
0.425 0.0125 -0.05
0.4375 0.0125 -0.05
0.45 0.0125 -0.05
0.4625 0.0125 -0.05
0.475 0.0125 -0.05
0.4875 0.0125 -0.05
0.5 0.0125 -0.05
0.5125 0.0125 -0.05
0.525 0.0125 -0.05
0.5375 0.0125 -0.05
0.55 0.0125 -0.05
0.5625 0.0125 -0.05
0.575 0.0125 -0.05
0.5875 0.0125 -0.05
0.6 0.0125 -0.05
0.0 0.025 -0.05
0.0125 0.025 -0.05
0.025 0.025 -0.05
0.0375 0.025 -0.05
0.05 0.025 -0.05
0.0625 0.025 -0.05
0.075 0.025 -0.05
0.0875 0.025 -0.05
0.1 0.025 -0.05
0.1125 0.025 -0.05
0.125 0.025 -0.05
0.1375 0.025 -0.05
0.15 0.025 -0.05
0.1625 0.025 -0.05
0.175 0.025 -0.05
0.1875 0.025 -0.05
0.2 0.025 -0.05
0.2125 0.025 -0.05
0.225 0.025 -0.05
0.2375 0.025 -0.05
0.25 0.025 -0.05
0.2625 0.025 -0.05
0.275 0.025 -0.05
0.2875 0.025 -0.05
0.3 0.025 -0.05
0.3125 0.025 -0.05
0.325 0.025 -0.05
0.3375 0.025 -0.05
0.35 0.025 -0.05
0.3625 0.025 -0.05
0.375 0.025 -0.05
0.3875 0.025 -0.05
0.4 0.025 -0.05
0.4125 0.025 -0.05
0.425 0.025 -0.05
0.4375 0.025 -0.05
0.45 0.025 -0.05
0.4625 0.025 -0.05
0.475 0.025 -0.05
0.4875 0.025 -0.05
0.5 0.025 -0.05
0.5125 0.025 -0.05
0.525 0.025 -0.05
0.5375 0.025 -0.05
0.55 0.025 -0.05
0.5625 0.025 -0.05
0.575 0.025 -0.05
0.5875 0.025 -0.05
0.6 0.025 -0.05
0.0 0.0375 -0.05
0.0125 0.0375 -0.05
0.025 0.0375 -0.05
0.0375 0.0375 -0.05
0.05 0.0375 -0.05
0.0625 0.0375 -0.05
0.075 0.0375 -0.05
0.0875 0.0375 -0.05
0.1 0.0375 -0.05
0.1125 0.0375 -0.05
0.125 0.0375 -0.05
0.1375 0.0375 -0.05
0.15 0.0375 -0.05
0.1625 0.0375 -0.05
0.175 0.0375 -0.05
0.1875 0.0375 -0.05
0.2 0.0375 -0.05
0.2125 0.0375 -0.05
0.225 0.0375 -0.05
0.2375 0.0375 -0.05
0.25 0.0375 -0.05
0.2625 0.0375 -0.05
0.275 0.0375 -0.05
0.2875 0.0375 -0.05
0.3 0.0375 -0.05
0.3125 0.0375 -0.05
0.325 0.0375 -0.05
0.3375 0.0375 -0.05
0.35 0.0375 -0.05
0.3625 0.0375 -0.05
0.375 0.0375 -0.05
0.3875 0.0375 -0.05
0.4 0.0375 -0.05
0.4125 0.0375 -0.05
0.425 0.0375 -0.05
0.4375 0.0375 -0.05
0.45 0.0375 -0.05
0.4625 0.0375 -0.05
0.475 0.0375 -0.05
0.4875 0.0375 -0.05
0.5 0.0375 -0.05
0.5125 0.0375 -0.05
0.525 0.0375 -0.05
0.5375 0.0375 -0.05
0.55 0.0375 -0.05
0.5625 0.0375 -0.05
0.575 0.0375 -0.05
0.5875 0.0375 -0.05
0.6 0.0375 -0.05
0.0 0.05 -0.05
0.0125 0.05 -0.05
0.025 0.05 -0.05
0.0375 0.05 -0.05
0.05 0.05 -0.05
0.0625 0.05 -0.05
0.075 0.05 -0.05
0.0875 0.05 -0.05
0.1 0.05 -0.05
0.1125 0.05 -0.05
0.125 0.05 -0.05
0.1375 0.05 -0.05
0.15 0.05 -0.05
0.1625 0.05 -0.05
0.175 0.05 -0.05
0.1875 0.05 -0.05
0.2 0.05 -0.05
0.2125 0.05 -0.05
0.225 0.05 -0.05
0.2375 0.05 -0.05
0.25 0.05 -0.05
0.2625 0.05 -0.05
0.275 0.05 -0.05
0.2875 0.05 -0.05
0.3 0.05 -0.05
0.3125 0.05 -0.05
0.325 0.05 -0.05
0.3375 0.05 -0.05
0.35 0.05 -0.05
0.3625 0.05 -0.05
0.375 0.05 -0.05
0.3875 0.05 -0.05
0.4 0.05 -0.05
0.4125 0.05 -0.05
0.425 0.05 -0.05
0.4375 0.05 -0.05
0.45 0.05 -0.05
0.4625 0.05 -0.05
0.475 0.05 -0.05
0.4875 0.05 -0.05
0.5 0.05 -0.05
0.5125 0.05 -0.05
0.525 0.05 -0.05
0.5375 0.05 -0.05
0.55 0.05 -0.05
0.5625 0.05 -0.05
0.575 0.05 -0.05
0.5875 0.05 -0.05
0.6 0.05 -0.05
0.0 0.0625 -0.05
0.0125 0.0625 -0.05
0.025 0.0625 -0.05
0.0375 0.0625 -0.05
0.05 0.0625 -0.05
0.0625 0.0625 -0.05
0.075 0.0625 -0.05
0.0875 0.0625 -0.05
0.1 0.0625 -0.05
0.1125 0.0625 -0.05
0.125 0.0625 -0.05
0.1375 0.0625 -0.05
0.15 0.0625 -0.05
0.1625 0.0625 -0.05
0.175 0.0625 -0.05
0.1875 0.0625 -0.05
0.2 0.0625 -0.05
0.2125 0.0625 -0.05
0.225 0.0625 -0.05
0.2375 0.0625 -0.05
0.25 0.0625 -0.05
0.2625 0.0625 -0.05
0.275 0.0625 -0.05
0.2875 0.0625 -0.05
0.3 0.0625 -0.05
0.3125 0.0625 -0.05
0.325 0.0625 -0.05
0.3375 0.0625 -0.05
0.35 0.0625 -0.05
0.3625 0.0625 -0.05
0.375 0.0625 -0.05
0.3875 0.0625 -0.05
0.4 0.0625 -0.05
0.4125 0.0625 -0.05
0.425 0.0625 -0.05
0.4375 0.0625 -0.05
0.45 0.0625 -0.05
0.4625 0.0625 -0.05
0.475 0.0625 -0.05
0.4875 0.0625 -0.05
0.5 0.0625 -0.05
0.5125 0.0625 -0.05
0.525 0.0625 -0.05
0.5375 0.0625 -0.05
0.55 0.0625 -0.05
0.5625 0.0625 -0.05
0.575 0.0625 -0.05
0.5875 0.0625 -0.05
0.6 0.0625 -0.05
0.0 0.075 -0.05
0.0125 0.075 -0.05
0.025 0.075 -0.05
0.0375 0.075 -0.05
0.05 0.075 -0.05
0.0625 0.075 -0.05
0.075 0.075 -0.05
0.0875 0.075 -0.05
0.1 0.075 -0.05
0.1125 0.075 -0.05
0.125 0.075 -0.05
0.1375 0.075 -0.05
0.15 0.075 -0.05
0.1625 0.075 -0.05
0.175 0.075 -0.05
0.1875 0.075 -0.05
0.2 0.075 -0.05
0.2125 0.075 -0.05
0.225 0.075 -0.05
0.2375 0.075 -0.05
0.25 0.075 -0.05
0.2625 0.075 -0.05
0.275 0.075 -0.05
0.2875 0.075 -0.05
0.3 0.075 -0.05
0.3125 0.075 -0.05
0.325 0.075 -0.05
0.3375 0.075 -0.05
0.35 0.075 -0.05
0.3625 0.075 -0.05
0.375 0.075 -0.05
0.3875 0.075 -0.05
0.4 0.075 -0.05
0.4125 0.075 -0.05
0.425 0.075 -0.05
0.4375 0.075 -0.05
0.45 0.075 -0.05
0.4625 0.075 -0.05
0.475 0.075 -0.05
0.4875 0.075 -0.05
0.5 0.075 -0.05
0.5125 0.075 -0.05
0.525 0.075 -0.05
0.5375 0.075 -0.05
0.55 0.075 -0.05
0.5625 0.075 -0.05
0.575 0.075 -0.05
0.5875 0.075 -0.05
0.6 0.075 -0.05
0.0 0.0875 -0.05
0.0125 0.0875 -0.05
0.025 0.0875 -0.05
0.0375 0.0875 -0.05
0.05 0.0875 -0.05
0.0625 0.0875 -0.05
0.075 0.0875 -0.05
0.0875 0.0875 -0.05
0.1 0.0875 -0.05
0.1125 0.0875 -0.05
0.125 0.0875 -0.05
0.1375 0.0875 -0.05
0.15 0.0875 -0.05
0.1625 0.0875 -0.05
0.175 0.0875 -0.05
0.1875 0.0875 -0.05
0.2 0.0875 -0.05
0.2125 0.0875 -0.05
0.225 0.0875 -0.05
0.2375 0.0875 -0.05
0.25 0.0875 -0.05
0.2625 0.0875 -0.05
0.275 0.0875 -0.05
0.2875 0.0875 -0.05
0.3 0.0875 -0.05
0.3125 0.0875 -0.05
0.325 0.0875 -0.05
0.3375 0.0875 -0.05
0.35 0.0875 -0.05
0.3625 0.0875 -0.05
0.375 0.0875 -0.05
0.3875 0.0875 -0.05
0.4 0.0875 -0.05
0.4125 0.0875 -0.05
0.425 0.0875 -0.05
0.4375 0.0875 -0.05
0.45 0.0875 -0.05
0.4625 0.0875 -0.05
0.475 0.0875 -0.05
0.4875 0.0875 -0.05
0.5 0.0875 -0.05
0.5125 0.0875 -0.05
0.525 0.0875 -0.05
0.5375 0.0875 -0.05
0.55 0.0875 -0.05
0.5625 0.0875 -0.05
0.575 0.0875 -0.05
0.5875 0.0875 -0.05
0.6 0.0875 -0.05
0.0 0.1 -0.05
0.0125 0.1 -0.05
0.025 0.1 -0.05
0.0375 0.1 -0.05
0.05 0.1 -0.05
0.0625 0.1 -0.05
0.075 0.1 -0.05
0.0875 0.1 -0.05
0.1 0.1 -0.05
0.1125 0.1 -0.05
0.125 0.1 -0.05
0.1375 0.1 -0.05
0.15 0.1 -0.05
0.1625 0.1 -0.05
0.175 0.1 -0.05
0.1875 0.1 -0.05
0.2 0.1 -0.05
0.2125 0.1 -0.05
0.225 0.1 -0.05
0.2375 0.1 -0.05
0.25 0.1 -0.05
0.2625 0.1 -0.05
0.275 0.1 -0.05
0.2875 0.1 -0.05
0.3 0.1 -0.05
0.3125 0.1 -0.05
0.325 0.1 -0.05
0.3375 0.1 -0.05
0.35 0.1 -0.05
0.3625 0.1 -0.05
0.375 0.1 -0.05
0.3875 0.1 -0.05
0.4 0.1 -0.05
0.4125 0.1 -0.05
0.425 0.1 -0.05
0.4375 0.1 -0.05
0.45 0.1 -0.05
0.4625 0.1 -0.05
0.475 0.1 -0.05
0.4875 0.1 -0.05
0.5 0.1 -0.05
0.5125 0.1 -0.05
0.525 0.1 -0.05
0.5375 0.1 -0.05
0.55 0.1 -0.05
0.5625 0.1 -0.05
0.575 0.1 -0.05
0.5875 0.1 -0.05
0.6 0.1 -0.05
0.0 0.1125 -0.05
0.0125 0.1125 -0.05
0.025 0.1125 -0.05
0.0375 0.1125 -0.05
0.05 0.1125 -0.05
0.0625 0.1125 -0.05
0.075 0.1125 -0.05
0.0875 0.1125 -0.05
0.1 0.1125 -0.05
0.1125 0.1125 -0.05
0.125 0.1125 -0.05
0.1375 0.1125 -0.05
0.15 0.1125 -0.05
0.1625 0.1125 -0.05
0.175 0.1125 -0.05
0.1875 0.1125 -0.05
0.2 0.1125 -0.05
0.2125 0.1125 -0.05
0.225 0.1125 -0.05
0.2375 0.1125 -0.05
0.25 0.1125 -0.05
0.2625 0.1125 -0.05
0.275 0.1125 -0.05
0.2875 0.1125 -0.05
0.3 0.1125 -0.05
0.3125 0.1125 -0.05
0.325 0.1125 -0.05
0.3375 0.1125 -0.05
0.35 0.1125 -0.05
0.3625 0.1125 -0.05
0.375 0.1125 -0.05
0.3875 0.1125 -0.05
0.4 0.1125 -0.05
0.4125 0.1125 -0.05
0.425 0.1125 -0.05
0.4375 0.1125 -0.05
0.45 0.1125 -0.05
0.4625 0.1125 -0.05
0.475 0.1125 -0.05
0.4875 0.1125 -0.05
0.5 0.1125 -0.05
0.5125 0.1125 -0.05
0.525 0.1125 -0.05
0.5375 0.1125 -0.05
0.55 0.1125 -0.05
0.5625 0.1125 -0.05
0.575 0.1125 -0.05
0.5875 0.1125 -0.05
0.6 0.1125 -0.05
0.0 0.125 -0.05
0.0125 0.125 -0.05
0.025 0.125 -0.05
0.0375 0.125 -0.05
0.05 0.125 -0.05
0.0625 0.125 -0.05
0.075 0.125 -0.05
0.0875 0.125 -0.05
0.1 0.125 -0.05
0.1125 0.125 -0.05
0.125 0.125 -0.05
0.1375 0.125 -0.05
0.15 0.125 -0.05
0.1625 0.125 -0.05
0.175 0.125 -0.05
0.1875 0.125 -0.05
0.2 0.125 -0.05
0.2125 0.125 -0.05
0.225 0.125 -0.05
0.2375 0.125 -0.05
0.25 0.125 -0.05
0.2625 0.125 -0.05
0.275 0.125 -0.05
0.2875 0.125 -0.05
0.3 0.125 -0.05
0.3125 0.125 -0.05
0.325 0.125 -0.05
0.3375 0.125 -0.05
0.35 0.125 -0.05
0.3625 0.125 -0.05
0.375 0.125 -0.05
0.3875 0.125 -0.05
0.4 0.125 -0.05
0.4125 0.125 -0.05
0.425 0.125 -0.05
0.4375 0.125 -0.05
0.45 0.125 -0.05
0.4625 0.125 -0.05
0.475 0.125 -0.05
0.4875 0.125 -0.05
0.5 0.125 -0.05
0.5125 0.125 -0.05
0.525 0.125 -0.05
0.5375 0.125 -0.05
0.55 0.125 -0.05
0.5625 0.125 -0.05
0.575 0.125 -0.05
0.5875 0.125 -0.05
0.6 0.125 -0.05
0.0 0.1375 -0.05
0.0125 0.1375 -0.05
0.025 0.1375 -0.05
0.0375 0.1375 -0.05
0.05 0.1375 -0.05
0.0625 0.1375 -0.05
0.075 0.1375 -0.05
0.0875 0.1375 -0.05
[...]
CELL_DATA 16128
SCALARS P float 1
LOOKUP_TABLE default
99999.99999998242
100000.00000004664
99999.9999998748
100000.00000033216
99999.99999911692
100000.00000234201
99999.99999379621
100000.00001640273
99999.99995670147
100000.00011407434
99999.99970007066
100000.00078683533
99999.9979407974
100000.00537486585
99999.98601128966
100000.03629078233
99999.90618776964
100000.24152314401
99999.3811021533
100001.5779487302
99995.97949872106
100010.90484876488
99950.11034686961
100735.2433783795
148026.26900835504
349009.3859132951
668770.2700434831
923493.3627228853
1.0262881405061741e6
1.0536302656289106e6
1.0668492771614257e6
1.0784556688307638e6
1.0895722886227686e6
1.1002261708960135e6
1.110397869540466e6
1.1200734406136898e6
1.1292387050819641e6
1.1378761437415944e6
1.1459605726485576e6
1.1534655721115123e6
1.1603427241889145e6
1.1665834413825604e6
1.1720400538788484e6
1.1769587288954668e6
1.1804111909373428e6
1.1849496844335082e6
1.182799831057234e6
1.1968243998586894e6
99999.9999999822
100000.00000004668
99999.99999987398
100000.00000033466
99999.99999910935
100000.00000236653
99999.99999372018
100000.00001663696
99999.99995599028
100000.00011621056
99999.99969372158
100000.00080551111
99999.9978864315
100000.00553141051
99999.98556574655
100000.03754300959
99999.90271494063
100000.2510267068
99999.35539029392
100001.64709039239
99995.79463533677
100011.34098592411
99951.06252951593
100677.99262252873
147154.96353202447
347483.8014703993
669175.3464983456
927881.6124868765
1.0335752513771588e6
1.0621669529250409e6
1.0759707821775484e6
1.087921231665396e6
1.099281976687056e6
1.1101440232199982e6
1.1205178547549632e6
1.1304019068299124e6
1.139785346004538e6
1.1486492651927022e6
1.1569643880739855e6
1.1646982792044315e6
1.1717950648783515e6
1.1782369495207015e6
1.1838666281323954e6
1.1889181491049198e6
1.1924539085247137e6
1.1970254806696116e6
1.1947961664660524e6
1.2090249878375696e6
99999.99999998203
100000.00000004751
99999.9999998727
100000.00000033928
99999.99999909346
100000.0000024176
99999.99999355755
100000.0000171461
99999.99995441861
100000.00012101006
99999.99967919379
100000.00084916073
99999.99775610324
100000.00591849636
99999.98442108351
100000.04091607215
99999.8928018031
100000.28010585734
99999.27019876252
100001.89626628629
99995.072470218
100013.2753639778
99950.14821047154
100559.06941373809
144933.07638878818
341470.5538107433
661533.6970468585
922019.340189112
1.029688818525915e6
1.058755057058552e6
1.07247909530487e6
1.084274436541203e6
1.0954679544155027e6
1.1061527003031543e6
1.1163378719318737e6
1.126022122186488e6
1.1351960774502014e6
1.143843086006443e6
1.151936831760253e6
1.1594482336425944e6
1.166326106545685e6
1.1725563757164965e6
1.1779915316273281e6
1.1828625650466012e6
1.18626470694497e6
1.1907000430607048e6
1.1884045600814822e6
1.2028272745032697e6
99999.99999998185
100000.0000000479
99999.99999987191
100000.00000034383
99999.99999907668
100000.00000247468
99999.99999336946
100000.00001775073
99999.99995250929
100000.00012695362
99999.99966090302
100000.00090492635
99999.99758739317
100000.00642557249
99999.98290553408
100000.04542359359
99999.87945449736
100000.31946634682
99999.15460682103
100002.2339953124
99994.0984435667
100015.85778069585
99949.19177974276
100392.89819089368
141517.69271544943
332088.4602626084
650116.2385617638
914640.0997708463
1.0265538324951191e6
1.0569922083294392e6
1.0709486241618572e6
1.0827797546953994e6
1.09396833142716e6
1.1046319848590689e6
1.1147893679761423e6
1.12444540190848e6
1.1335953499357135e6
1.1422261004864962e6
1.1503141909539646e6
1.1578323779074186e6
1.1647312845305174e6
1.1709952154123855e6
1.1764798936852221e6
1.181400685996868e6
1.184875853114731e6
1.1893412543016658e6
1.187067556742508e6
1.201866013199422e6
99999.99999998193
100000.00000004779
99999.99999987187
100000.00000034554
99999.99999906716
100000.00000251364
99999.99999322607
100000.00001824879
99999.99995084885
100000.00013234263
99999.99964376449
100000.00095859397
99999.99742139515
100000.0069338837
99999.9813620518
100000.05007664823
99999.86551590907
100000.36098190995
99999.03161655195
100002.59621966661
99993.04530791125
100018.67282521159
99948.12800891077
100209.64456160503
137119.42289745805
319520.82653589547
634507.5127797239
904338.5824203064
1.022020163955111e6
1.0542552719511425e6
1.0683807170702359e6
1.0801231158635363e6
1.0911874713516752e6
1.1017150088451533e6
1.1117289314027792e6
1.1212373134486533e6
1.1302383469759752e6
1.1387216682462397e6
1.1466665574079838e6
1.1540480023540366e6
1.1608195760202778e6
1.1669653790930905e6
1.1723479794805096e6
1.1771690224950644e6
1.180581359212164e6
1.1849539281482555e6
1.1826118039175682e6
1.1978221971516358e6
99999.99999998257
100000.0000000466
99999.99999987369
100000.00000034153
99999.99999907374
100000.00000250887
99999.99999320107
100000.00001842377
99999.99995006727
100000.00013534281
99999.99963310553
100000.00099471984
99999.99730277598
100000.00731457412
99999.98016119853
100000.05381365154
99999.85401312046
100000.39606881705
99998.92541206854
100002.91530509749
99992.0996230369
100021.2467376458
99947.04433412541
100040.6679717552
132009.17206242454
304065.49140632804
614697.3656037237
890974.0141618485
1.0162223972528331e6
1.0509588947404483e6
1.0653503811586725e6
1.076990886406713e6
1.0879073745480154e6
1.098275110320084e6
1.1081226413998804e6
1.117461683593225e6
1.1262940406097544e6
1.134612867489641e6
1.1424009775572368e6
1.1496362793694846e6
1.1562758929961286e6
1.1623038078214258e6
1.1675896479092524e6
1.172319830323856e6
1.1756823765273825e6
1.1799778213557934e6
1.177566870392077e6
1.193310217340888e6
99999.99999998353
100000.00000004438
99999.99999987884
100000.00000032922
99999.9999991037
100000.00000243883
99999.99999336003
100000.00001808272
99999.99995073296
100000.00013428487
99999.99963382227
100000.00099897529
99999.99727337722
100000.00744574335
99999.97965728844
100000.05560713573
99999.84791919513
100000.41614006364
99998.86076394904
100003.1198533282
99991.46621627016
100023.02434193292
99946.47645261344
99911.20524043699
126498.84702172069
286104.84534774016
590680.8847749872
874190.7979826813
1.0088793495752906e6
1.0469578317605436e6
1.0617350155341732e6
1.0732435098602115e6
1.0839635309720368e6
1.0941196621567947e6
1.1037463053584339e6
1.1128583776192009e6
1.1214610729867788e6
1.1295510731601093e6
1.137114944102566e6
1.144133943182521e6
1.1505694521943298e6
1.1564063630787425e6
1.16152303750421e6
1.1660927430915132e6
1.1693424457910499e6
1.1735101205714475e6
1.170977485943416e6
1.1873634362245388e6
99999.99999998482
100000.00000004134
99999.99999988715
100000.00000030725
99999.9999991615
100000.00000228915
99999.9999937455
100000.00001709658
99999.9999532354
100000.00012799665
99999.99964942742
100000.00096086177
99999.9973645025
100000.00723424811
99999.9801269701
100000.054636645
99999.84966453075
100000.41400219369
99998.858952519
100003.14695634239
99991.33037416555
100023.48096742727
99947.35368014514
99835.12170243866
120922.66775926438
266114.9896498627
562516.9799307769
853611.8927079593
999704.920237865
1.042179517799438e6
1.0575344034670307e6
1.0688979283895472e6
1.0793793463726689e6
1.0892762273673234e6
1.0986305615694541e6
1.1074602170969313e6
1.1157735839930524e6
1.12357087808642e6
1.1308426537600933e6
1.1375740429084215e6
1.1437315498068435e6
1.1493023671698924e6
1.1541754147968881e6
1.1585138093723764e6
1.1615861807133092e6
1.1655762189323406e6
1.1628637716641938e6
1.1800370308983778e6
99999.99999998663
100000.0000000368
99999.99999989917
100000.00000027509
99999.99999924762
100000.00000205742
99999.999994367
100000.00001543145
99999.99995769153
100000.0001160859
99999.99968121511
100000.00087617872
99999.99758962744
100000.00663724417
99999.9817054967
100000.05047761243
99999.86057577493
100000.38552551855
99998.93279203822
100002.95698274649
99991.81433648706
100022.24454165973
99950.7812105981
99812.45742019007
115612.60530348266
244670.43376174205
530353.1464772454
828826.0376007733
988331.7250840671
1.0365123784501825e6
1.0527266390554649e6
1.0639460092335586e6
1.074145177675027e6
1.0837302357861195e6
1.092753871488539e6
1.1012364495098873e6
1.1091888885917887e6
1.1166143742532665e6
1.1235070504334962e6
1.129855800172215e6
1.1356324350411037e6
1.1408273246455984e6
1.145341196242819e6
1.1493304599407748e6
1.1521086013799943e6
1.155818480410388e6
1.1528160004939903e6
1.170939941874104e6
99999.99999998849
100000.00000003143
99999.99999991425
100000.00000023443
99999.99999935838
100000.0000017547
99999.99999519484
100000.0000131662
99999.99996389305
100000.00009910096
99999.99972775474
100000.00074860436
99999.99793947044
100000.00567755412
99999.98433885274
100000.04325034886
99999.88041294366
100000.33107858765
99999.08220130471
100002.54718028897
99992.93570717823
100019.22289594066
99957.56523288671
99830.82042054452
110867.80390172827
222443.6172694627
494462.86658108345
799413.3815920196
974303.6395464923
1.0298079490883686e6
1.0472893247334781e6
1.058388054685075e6
1.0682621100829693e6
1.0774792422310857e6
1.0861082347952374e6
1.0941713694680724e6
1.1016809144797188e6
1.1086418166456642e6
1.1150507038291353e6
1.120899433500207e6
1.1261648557889636e6
1.1308415020999028e6
1.1348439045588826e6
1.1383277085099032e6
1.1406568975364368e6
1.1439524568044262e6
1.1405201986294396e6
1.159817406246376e6
99999.99999999047
100000.0000000254
99999.99999993085
100000.00000018848
99999.99999948536
100000.00000140425
99999.9999961637
100000.00001048492
99999.9999713194
100000.00007850835
99999.99978491713
100000.00058975138
99999.99838141706
100000.00444661394
99999.98777124846
100000.03366852173
99999.90719125237
100000.25615986552
99999.2920207741
100001.95907788292
99994.58243323545
100014.69238488855
99967.72934349935
99870.52396352934
106920.46149056424
200193.47240628005
455285.3281339962
764982.4126738263
957061.6142085354
1.0218601754350887e6
1.0411907854273098e6
1.052227460386021e6
1.0617362646301938e6
1.0705258721956664e6
1.078690310106686e6
1.0862530958981495e6
1.09322586190558e6
1.0996129117487385e6
1.1054105624043692e6
1.1106104757136e6
1.1151908167943987e6
1.1191463517291062e6
1.1224004459498264e6
1.1251055404912045e6
1.1266735799603926e6
1.1292270575395944e6
1.1250069449280377e6
1.145654908281624e6
99999.99999999287
100000.00000001898
99999.99999994783
100000.00000014075
99999.99999961742
100000.00000103761
99999.9999971829
100000.0000076487
99999.99997922248
100000.00005645651
99999.99984653159
100000.00041735198
99999.9988644973
100000.0030909557
99999.99158139995
100000.0229432521
99999.93742966994
100000.17077077471
99999.53353233554
100001.27503394158
99996.51947568479
100009.29633319659
99980.23733820922
99911.9197623575
103904.01043890404
178738.29161063564
413462.8098930148
725223.9464430409
935937.6060705519
1.0123819979048579e6
1.0343825261031337e6
1.0454705352029027e6
1.0545810160253407e6
1.0628814288666951e6
1.0705064726640142e6
1.0774804523483594e6
1.0838115742357143e6
1.0894999433284428e6
1.0945374120652534e6
1.0989109749431238e6
1.1025958121956924e6
1.105584349288588e6
1.1078083948267126e6
1.1094294586917749e6
1.1099180822134754e6
1.1114418087062556e6
1.1061523193447639e6
1.1285746614760498e6
99999.99999999504
100000.0000000131
99999.99999996404
100000.00000009565
99999.99999974281
100000.00000068902
99999.99999815309
100000.00000494438
99999.99998677129
100000.00003535605
99999.9999056001
100000.00025174147
99999.99932956092
100000.00178281
99999.99526732367
100000.01253902585
99999.96685177479
100000.0874095833
99999.77017955933
100000.60201382336
99998.43433040664
100003.92564012847
99993.10655482061
99942.08139695623
101832.44414078983
158908.05617162984
369868.7432688336
679982.7044368688
910161.2565929042
1.0009761999883282e6
1.0267870439965589e6
1.0381242116298254e6
1.0468175152604914e6
1.0545674421475376e6
1.0615751282783234e6
1.0678659584978702e6
1.073440732660038e6
1.078289529523641e6
1.0823916417496824e6
1.0857179540927517e6
1.0882237645844582e6
1.0898740226616191e6
1.090571117632252e6
1.0904225415489867e6
1.0888884270746515e6
1.0881254976893992e6
1.0801600723157893e6
1.1037862916409925e6
99999.99999999667
100000.00000000805
99999.99999997824
100000.0000000566
99999.99999985092
100000.00000038889
99999.99999898644
100000.0000026273
99999.9999932221
100000.00001737394
99999.99995579483
100000.00011142535
99999.99972240227
100000.00068121149
99999.99836163511
100000.00383179501
99999.99139971627
100000.01806468055
99999.96648059273
100000.04519710223
100000.01502547092
99999.49372435673
100003.95584356562
99957.88067624863
100600.59172278523
141472.2962126578
325617.4510977954
629344.8110652737
878887.8926740348
987102.1387547001
1.0182800486924761e6
1.0301920886708719e6
1.038474972822497e6
1.0456175243070283e6
1.0519300368437825e6
1.057441495369964e6
1.0621408569368059e6
1.0660013737630022e6
1.0689808264274478e6
1.0710229386556426e6
1.0720523411270024e6
1.0719967131991277e6
1.070731410311857e6
1.0683522003250385e6
1.0643851801899036e6
1.0611124888178501e6
1.050521769949201e6
1.076988684930008e6
99999.99999999831
100000.0000000041
99999.99999998933
100000.00000002595
99999.99999993481
100000.00000015754
99999.9999996234
100000.00000086996
99999.999998072
100000.00000397871
99999.99999282438
100000.0000089739
100000.00000612311
99999.99989471947
100000.0005441661
99999.99776823827
100000.00826678795
99999.97108095366
100000.09755087267
99999.67901028835
100001.03835504256
99996.66885640529
100010.82218023065
99964.18053450942
100011.78842074475
127044.0944437947
282044.76491901954
573734.6232170524
841257.9578995071
970042.1268626588
1.0086649902259647e6
1.0216675364338056e6
1.02958988040763e6
1.0360783475671547e6
1.0416221124088204e6
1.046260544836856e6
1.0499656746348552e6
1.0526842120412579e6
1.05433658197742e6
1.0548131157870986e6
1.0539581211313147e6
1.051578479865312e6
1.0473528040605149e6
1.0410321935475108e6
1.0315921303037478e6
1.0204299684144475e6
998098.8440998454
1.0161444417602377e6
99999.99999999933
100000.00000000108
99999.99999999697
100000.00000000495
99999.99999999198
100000.00000000269
100000.0000000429
99999.99999973392
100000.00000114558
99999.99999567082
100000.00001524946
99999.99994853015
100000.00016875773
99999.99945800271
100000.00171408057
99999.99464293492
100000.0165880628
99999.94901248567
100000.15579982141
99999.52617980773
100001.43563955689
99995.66484964234
100012.9051506385
99968.55519096233
99830.27738712846
115972.54440212858
240648.48408254868
514007.27258668345
796497.2008248403
948874.9054903974
997637.6470501522
1.0125222795841612e6
1.0202037791858811e6
1.0260102021860783e6
1.0307218146187788e6
1.03440384863632e6
1.0370083226559379e6
1.0384474927045185e6
1.0385920197116049e6
1.037264108987878e6
1.0342163454819741e6
1.0291316158148475e6
1.0215459540784168e6
1.0110808364209469e6
996745.9837596203
980263.6205970736
952506.9195252307
975621.8001592901
100000.00000000003
99999.99999999939
100000.00000000166
99999.99999999288
100000.00000002395
99999.99999991883
100000.00000026138
99999.99999916859
100000.00000259634
99999.99999198472
100000.00002449128
99999.99992575926
100000.00022354028
99999.99933066135
100000.00199472427
99999.99407928342
100000.01751344504
99999.9483480335
100000.15195007669
99999.55396595316
100001.30667664832
99996.18512968995
100010.88381102533
99976.11698873166
99842.64025213892
108254.27900412308
202979.71958671632
451516.06542270916
744062.454252924
922468.4530593787
984738.7119398996
1.0026878168318671e6
1.0103581268006387e6
1.0154854011363386e6
1.0193180678154854e6
1.0219773778904744e6
1.023395337801972e6
1.023441281367998e6
1.0219201275667704e6
1.0185552773412591e6
1.0129344770463624e6
1.004447577638057e6
992065.6634004068
974209.3896059921
947185.7003538058
906086.4000226534
827360.3046291077
698736.8078004937
100000.00000000026
99999.99999999865
100000.00000000389
99999.99999998795
100000.00000003594
99999.99999989108
100000.00000032313
99999.99999904222
100000.00000281759
99999.99999174815
100000.00002404983
99999.999930192
100000.00020183799
99999.99941853325
100000.00166930018
99999.99522387634
100000.01361957497
99999.96129304296
100000.1096262252
99999.69063885087
100000.86943050052
99997.5732466721
100006.55778477265
99987.06833529113
99903.9835766145
103508.77785189173
170479.49272078704
388129.2629523092
683829.8318998946
889511.2967571683
969294.730405963
992026.5585113298
1.00008517448057e6
1.0045849893305843e6
1.0075166194292775e6
1.0091125930732335e6
1.0092931903460649e6
1.0078821231744668e6
1.0046206264350553e6
999129.2108941842
990838.3022275015
978885.5620718627
961837.1764921
937468.2209757636
901231.1490301939
847184.524305013
755837.9062968381
619107.4818671184
100000.00000000044
99999.99999999837
100000.00000000391
99999.99999998766
100000.00000003453
99999.99999989966
100000.00000028571
99999.99999918551
100000.00000230607
99999.99999349646
100000.0000182504
99999.99994902781
100000.00014161476
99999.99960877925
100000.00107394319
99999.99707309117
100000.00791021904
99999.97883516664
100000.05593771931
99999.85444176834
100000.37096375445
99999.08489330107
100002.0621085351
99998.00046367043
99949.19890617646
101053.63027850265
144260.64306524265
326169.1983855611
616309.154129722
848609.3508308991
950354.0125096038
980289.2907865517
989392.8271855625
993392.1741065582
995434.2152909626
995958.3061215538
994891.863575915
992025.2048585801
987044.0922816364
979492.595386501
968695.7473109605
953654.9933296185
932788.5615441871
903772.165166348
862363.8579773344
803625.969917768
714475.21509456
593447.4000516101
100000.0000000005
99999.99999999847
100000.0000000032
99999.99999999008
100000.00000002673
99999.99999992533
100000.00000020422
99999.99999943984
100000.00000152175
99999.9999958933
100000.00001098
99999.99997094419
100000.00007590507
99999.99980485922
100000.00049128912
99999.99879791212
100000.00282189288
99999.99379795029
100000.01207090588
99999.9826734768
99999.99725012382
100000.16885501822
99998.98703091619
100005.1935598164
99970.15086490595
100077.23309059194
124857.23212865456
268248.5285545171
542846.043323717
798476.4634686938
926634.1863225962
967056.1152438245
978241.3356081619
981982.2655673563
983190.3188117958
982668.2153405161
980388.6732872468
976126.0846978445
969531.1622389061
960105.9030120438
947133.5320943202
929592.1373345619
905950.7632710926
874102.9263023352
830575.1471260623
771812.5224798366
689813.1435831231
586181.0375438681
100000.00000000017
99999.99999999882
100000.00000000221
99999.99999999328
100000.00000001692
99999.99999995425
100000.00000011933
99999.99999968991
100000.00000079155
99999.99999801574
100000.00000484283
99999.99998859961
100000.00002537988
99999.99994866128
100000.00008438903
99999.99994193511
99999.99962844302
100000.00263857277
99999.98783650255
100000.04831127703
99999.82219883509
100000.62520831001
99997.86068261028
100007.18988367502
99980.08304685721
99850.64076536568
112019.94871264092
216990.36582045138
465746.82883442554
738231.8909203919
896509.7602886524
951658.8114950121
966508.3295615314
970408.5494124345
970897.6312645831
969389.8171373776
965969.3642310593
960417.2367123114
952373.4439146562
941332.1866013873
926589.148623191
907180.6833204062
881742.5458702843
848517.8072172309
804874.0637312055
748445.2993753426
674651.7047666691
585889.394927487
100000.00000000016
99999.99999999929
100000.00000000122
99999.9999999963
100000.00000000882
99999.99999997744
100000.00000005342
99999.9999998745
100000.00000027682
99999.99999944032
100000.00000093538
99999.99999921255
99999.99999689961
100000.00002397168
99999.99988896455
100000.00043643506
99999.99842093032
100000.00543092206
99999.98195893584
100000.05840676176
99999.81470970807
100000.57805423031
99998.22415913144
100005.26906590779
99989.00246157325
99881.82896049897
104693.75515114878
174640.8695570979
388250.8500009406
667787.4259695429
858082.5283644383
933086.7607441525
953936.8903016881
958682.071474603
958651.3694710623
956255.7986423483
951795.8255988772
945092.3973834071
935797.736591655
923426.8130854117