# vtk DataFile Version 2.0
JuliaCFD
ASCII
DATASET UNSTRUCTURED_GRID

POINTS 32898 float
0.0 0.0 -0.05
0.0125 0.0 -0.05
0.025 0.0 -0.05
0.0375 0.0 -0.05
0.05 0.0 -0.05
0.0625 0.0 -0.05
0.075 0.0 -0.05
0.0875 0.0 -0.05
0.1 0.0 -0.05
0.1125 0.0 -0.05
0.125 0.0 -0.05
0.1375 0.0 -0.05
0.15 0.0 -0.05
0.1625 0.0 -0.05
0.175 0.0 -0.05
0.1875 0.0 -0.05
0.2 0.0 -0.05
0.2125 0.0 -0.05
0.225 0.0 -0.05
0.2375 0.0 -0.05
0.25 0.0 -0.05
0.2625 0.0 -0.05
0.275 0.0 -0.05
0.2875 0.0 -0.05
0.3 0.0 -0.05
0.3125 0.0 -0.05
0.325 0.0 -0.05
0.3375 0.0 -0.05
0.35 0.0 -0.05
0.3625 0.0 -0.05
0.375 0.0 -0.05
0.3875 0.0 -0.05
0.4 0.0 -0.05
0.4125 0.0 -0.05
0.425 0.0 -0.05
0.4375 0.0 -0.05
0.45 0.0 -0.05
0.4625 0.0 -0.05
0.475 0.0 -0.05
0.4875 0.0 -0.05
0.5 0.0 -0.05
0.5125 0.0 -0.05
0.525 0.0 -0.05
0.5375 0.0 -0.05
0.55 0.0 -0.05
0.5625 0.0 -0.05
0.575 0.0 -0.05
0.5875 0.0 -0.05
0.6 0.0 -0.05
0.0 0.0125 -0.05
0.0125 0.0125 -0.05
0.025 0.0125 -0.05
0.0375 0.0125 -0.05
0.05 0.0125 -0.05
0.0625 0.0125 -0.05
0.075 0.0125 -0.05
0.0875 0.0125 -0.05
0.1 0.0125 -0.05
0.1125 0.0125 -0.05
0.125 0.0125 -0.05
0.1375 0.0125 -0.05
0.15 0.0125 -0.05
0.1625 0.0125 -0.05
0.175 0.0125 -0.05
0.1875 0.0125 -0.05
0.2 0.0125 -0.05
0.2125 0.0125 -0.05
0.225 0.0125 -0.05
0.2375 0.0125 -0.05
0.25 0.0125 -0.05
0.2625 0.0125 -0.05
0.275 0.0125 -0.05
0.2875 0.0125 -0.05
0.3 0.0125 -0.05
0.3125 0.0125 -0.05
0.325 0.0125 -0.05
0.3375 0.0125 -0.05
0.35 0.0125 -0.05
0.3625 0.0125 -0.05
0.375 0.0125 -0.05
0.3875 0.0125 -0.05
0.4 0.0125 -0.05
0.4125 0.0125 -0.05
0.425 0.0125 -0.05
0.4375 0.0125 -0.05
0.45 0.0125 -0.05
0.4625 0.0125 -0.05
0.475 0.0125 -0.05
0.4875 0.0125 -0.05
0.5 0.0125 -0.05
0.5125 0.0125 -0.05
0.525 0.0125 -0.05
0.5375 0.0125 -0.05
0.55 0.0125 -0.05
0.5625 0.0125 -0.05
0.575 0.0125 -0.05
0.5875 0.0125 -0.05
0.6 0.0125 -0.05
0.0 0.025 -0.05
0.0125 0.025 -0.05
0.025 0.025 -0.05
0.0375 0.025 -0.05
0.05 0.025 -0.05
0.0625 0.025 -0.05
0.075 0.025 -0.05
0.0875 0.025 -0.05
0.1 0.025 -0.05
0.1125 0.025 -0.05
0.125 0.025 -0.05
0.1375 0.025 -0.05
0.15 0.025 -0.05
0.1625 0.025 -0.05
0.175 0.025 -0.05
0.1875 0.025 -0.05
0.2 0.025 -0.05
0.2125 0.025 -0.05
0.225 0.025 -0.05
0.2375 0.025 -0.05
0.25 0.025 -0.05
0.2625 0.025 -0.05
0.275 0.025 -0.05
0.2875 0.025 -0.05
0.3 0.025 -0.05
0.3125 0.025 -0.05
0.325 0.025 -0.05
0.3375 0.025 -0.05
0.35 0.025 -0.05
0.3625 0.025 -0.05
0.375 0.025 -0.05
0.3875 0.025 -0.05
0.4 0.025 -0.05
0.4125 0.025 -0.05
0.425 0.025 -0.05
0.4375 0.025 -0.05
0.45 0.025 -0.05
0.4625 0.025 -0.05
0.475 0.025 -0.05
0.4875 0.025 -0.05
0.5 0.025 -0.05
0.5125 0.025 -0.05
0.525 0.025 -0.05
0.5375 0.025 -0.05
0.55 0.025 -0.05
0.5625 0.025 -0.05
0.575 0.025 -0.05
0.5875 0.025 -0.05
0.6 0.025 -0.05
0.0 0.0375 -0.05
0.0125 0.0375 -0.05
0.025 0.0375 -0.05
0.0375 0.0375 -0.05
0.05 0.0375 -0.05
0.0625 0.0375 -0.05
0.075 0.0375 -0.05
0.0875 0.0375 -0.05
0.1 0.0375 -0.05
0.1125 0.0375 -0.05
0.125 0.0375 -0.05
0.1375 0.0375 -0.05
0.15 0.0375 -0.05
0.1625 0.0375 -0.05
0.175 0.0375 -0.05
0.1875 0.0375 -0.05
0.2 0.0375 -0.05
0.2125 0.0375 -0.05
0.225 0.0375 -0.05
0.2375 0.0375 -0.05
0.25 0.0375 -0.05
0.2625 0.0375 -0.05
0.275 0.0375 -0.05
0.2875 0.0375 -0.05
0.3 0.0375 -0.05
0.3125 0.0375 -0.05
0.325 0.0375 -0.05
0.3375 0.0375 -0.05
0.35 0.0375 -0.05
0.3625 0.0375 -0.05
0.375 0.0375 -0.05
0.3875 0.0375 -0.05
0.4 0.0375 -0.05
0.4125 0.0375 -0.05
0.425 0.0375 -0.05
0.4375 0.0375 -0.05
0.45 0.0375 -0.05
0.4625 0.0375 -0.05
0.475 0.0375 -0.05
0.4875 0.0375 -0.05
0.5 0.0375 -0.05
0.5125 0.0375 -0.05
0.525 0.0375 -0.05
0.5375 0.0375 -0.05
0.55 0.0375 -0.05
0.5625 0.0375 -0.05
0.575 0.0375 -0.05
0.5875 0.0375 -0.05
0.6 0.0375 -0.05
0.0 0.05 -0.05
0.0125 0.05 -0.05
0.025 0.05 -0.05
0.0375 0.05 -0.05
0.05 0.05 -0.05
0.0625 0.05 -0.05
0.075 0.05 -0.05
0.0875 0.05 -0.05
0.1 0.05 -0.05
0.1125 0.05 -0.05
0.125 0.05 -0.05
0.1375 0.05 -0.05
0.15 0.05 -0.05
0.1625 0.05 -0.05
0.175 0.05 -0.05
0.1875 0.05 -0.05
0.2 0.05 -0.05
0.2125 0.05 -0.05
0.225 0.05 -0.05
0.2375 0.05 -0.05
0.25 0.05 -0.05
0.2625 0.05 -0.05
0.275 0.05 -0.05
0.2875 0.05 -0.05
0.3 0.05 -0.05
0.3125 0.05 -0.05
0.325 0.05 -0.05
0.3375 0.05 -0.05
0.35 0.05 -0.05
0.3625 0.05 -0.05
0.375 0.05 -0.05
0.3875 0.05 -0.05
0.4 0.05 -0.05
0.4125 0.05 -0.05
0.425 0.05 -0.05
0.4375 0.05 -0.05
0.45 0.05 -0.05
0.4625 0.05 -0.05
0.475 0.05 -0.05
0.4875 0.05 -0.05
0.5 0.05 -0.05
0.5125 0.05 -0.05
0.525 0.05 -0.05
0.5375 0.05 -0.05
0.55 0.05 -0.05
0.5625 0.05 -0.05
0.575 0.05 -0.05
0.5875 0.05 -0.05
0.6 0.05 -0.05
0.0 0.0625 -0.05
0.0125 0.0625 -0.05
0.025 0.0625 -0.05
0.0375 0.0625 -0.05
0.05 0.0625 -0.05
0.0625 0.0625 -0.05
0.075 0.0625 -0.05
0.0875 0.0625 -0.05
0.1 0.0625 -0.05
0.1125 0.0625 -0.05
0.125 0.0625 -0.05
0.1375 0.0625 -0.05
0.15 0.0625 -0.05
0.1625 0.0625 -0.05
0.175 0.0625 -0.05
0.1875 0.0625 -0.05
0.2 0.0625 -0.05
0.2125 0.0625 -0.05
0.225 0.0625 -0.05
0.2375 0.0625 -0.05
0.25 0.0625 -0.05
0.2625 0.0625 -0.05
0.275 0.0625 -0.05
0.2875 0.0625 -0.05
0.3 0.0625 -0.05
0.3125 0.0625 -0.05
0.325 0.0625 -0.05
0.3375 0.0625 -0.05
0.35 0.0625 -0.05
0.3625 0.0625 -0.05
0.375 0.0625 -0.05
0.3875 0.0625 -0.05
0.4 0.0625 -0.05
0.4125 0.0625 -0.05
0.425 0.0625 -0.05
0.4375 0.0625 -0.05
0.45 0.0625 -0.05
0.4625 0.0625 -0.05
0.475 0.0625 -0.05
0.4875 0.0625 -0.05
0.5 0.0625 -0.05
0.5125 0.0625 -0.05
0.525 0.0625 -0.05
0.5375 0.0625 -0.05
0.55 0.0625 -0.05
0.5625 0.0625 -0.05
0.575 0.0625 -0.05
0.5875 0.0625 -0.05
0.6 0.0625 -0.05
0.0 0.075 -0.05
0.0125 0.075 -0.05
0.025 0.075 -0.05
0.0375 0.075 -0.05
0.05 0.075 -0.05
0.0625 0.075 -0.05
0.075 0.075 -0.05
0.0875 0.075 -0.05
0.1 0.075 -0.05
0.1125 0.075 -0.05
0.125 0.075 -0.05
0.1375 0.075 -0.05
0.15 0.075 -0.05
0.1625 0.075 -0.05
0.175 0.075 -0.05
0.1875 0.075 -0.05
0.2 0.075 -0.05
0.2125 0.075 -0.05
0.225 0.075 -0.05
0.2375 0.075 -0.05
0.25 0.075 -0.05
0.2625 0.075 -0.05
0.275 0.075 -0.05
0.2875 0.075 -0.05
0.3 0.075 -0.05
0.3125 0.075 -0.05
0.325 0.075 -0.05
0.3375 0.075 -0.05
0.35 0.075 -0.05
0.3625 0.075 -0.05
0.375 0.075 -0.05
0.3875 0.075 -0.05
0.4 0.075 -0.05
0.4125 0.075 -0.05
0.425 0.075 -0.05
0.4375 0.075 -0.05
0.45 0.075 -0.05
0.4625 0.075 -0.05
0.475 0.075 -0.05
0.4875 0.075 -0.05
0.5 0.075 -0.05
0.5125 0.075 -0.05
0.525 0.075 -0.05
0.5375 0.075 -0.05
0.55 0.075 -0.05
0.5625 0.075 -0.05
0.575 0.075 -0.05
0.5875 0.075 -0.05
0.6 0.075 -0.05
0.0 0.0875 -0.05
0.0125 0.0875 -0.05
0.025 0.0875 -0.05
0.0375 0.0875 -0.05
0.05 0.0875 -0.05
0.0625 0.0875 -0.05
0.075 0.0875 -0.05
0.0875 0.0875 -0.05
0.1 0.0875 -0.05
0.1125 0.0875 -0.05
0.125 0.0875 -0.05
0.1375 0.0875 -0.05
0.15 0.0875 -0.05
0.1625 0.0875 -0.05
0.175 0.0875 -0.05
0.1875 0.0875 -0.05
0.2 0.0875 -0.05
0.2125 0.0875 -0.05
0.225 0.0875 -0.05
0.2375 0.0875 -0.05
0.25 0.0875 -0.05
0.2625 0.0875 -0.05
0.275 0.0875 -0.05
0.2875 0.0875 -0.05
0.3 0.0875 -0.05
0.3125 0.0875 -0.05
0.325 0.0875 -0.05
0.3375 0.0875 -0.05
0.35 0.0875 -0.05
0.3625 0.0875 -0.05
0.375 0.0875 -0.05
0.3875 0.0875 -0.05
0.4 0.0875 -0.05
0.4125 0.0875 -0.05
0.425 0.0875 -0.05
0.4375 0.0875 -0.05
0.45 0.0875 -0.05
0.4625 0.0875 -0.05
0.475 0.0875 -0.05
0.4875 0.0875 -0.05
0.5 0.0875 -0.05
0.5125 0.0875 -0.05
0.525 0.0875 -0.05
0.5375 0.0875 -0.05
0.55 0.0875 -0.05
0.5625 0.0875 -0.05
0.575 0.0875 -0.05
0.5875 0.0875 -0.05
0.6 0.0875 -0.05
0.0 0.1 -0.05
0.0125 0.1 -0.05
0.025 0.1 -0.05
0.0375 0.1 -0.05
0.05 0.1 -0.05
0.0625 0.1 -0.05
0.075 0.1 -0.05
0.0875 0.1 -0.05
0.1 0.1 -0.05
0.1125 0.1 -0.05
0.125 0.1 -0.05
0.1375 0.1 -0.05
0.15 0.1 -0.05
0.1625 0.1 -0.05
0.175 0.1 -0.05
0.1875 0.1 -0.05
0.2 0.1 -0.05
0.2125 0.1 -0.05
0.225 0.1 -0.05
0.2375 0.1 -0.05
0.25 0.1 -0.05
0.2625 0.1 -0.05
0.275 0.1 -0.05
0.2875 0.1 -0.05
0.3 0.1 -0.05
0.3125 0.1 -0.05
0.325 0.1 -0.05
0.3375 0.1 -0.05
0.35 0.1 -0.05
0.3625 0.1 -0.05
0.375 0.1 -0.05
0.3875 0.1 -0.05
0.4 0.1 -0.05
0.4125 0.1 -0.05
0.425 0.1 -0.05
0.4375 0.1 -0.05
0.45 0.1 -0.05
0.4625 0.1 -0.05
0.475 0.1 -0.05
0.4875 0.1 -0.05
0.5 0.1 -0.05
0.5125 0.1 -0.05
0.525 0.1 -0.05
0.5375 0.1 -0.05
0.55 0.1 -0.05
0.5625 0.1 -0.05
0.575 0.1 -0.05
0.5875 0.1 -0.05
0.6 0.1 -0.05
0.0 0.1125 -0.05
0.0125 0.1125 -0.05
0.025 0.1125 -0.05
0.0375 0.1125 -0.05
0.05 0.1125 -0.05
0.0625 0.1125 -0.05
0.075 0.1125 -0.05
0.0875 0.1125 -0.05
0.1 0.1125 -0.05
0.1125 0.1125 -0.05
0.125 0.1125 -0.05
0.1375 0.1125 -0.05
0.15 0.1125 -0.05
0.1625 0.1125 -0.05
0.175 0.1125 -0.05
0.1875 0.1125 -0.05
0.2 0.1125 -0.05
0.2125 0.1125 -0.05
0.225 0.1125 -0.05
0.2375 0.1125 -0.05
0.25 0.1125 -0.05
0.2625 0.1125 -0.05
0.275 0.1125 -0.05
0.2875 0.1125 -0.05
0.3 0.1125 -0.05
0.3125 0.1125 -0.05
0.325 0.1125 -0.05
0.3375 0.1125 -0.05
0.35 0.1125 -0.05
0.3625 0.1125 -0.05
0.375 0.1125 -0.05
0.3875 0.1125 -0.05
0.4 0.1125 -0.05
0.4125 0.1125 -0.05
0.425 0.1125 -0.05
0.4375 0.1125 -0.05
0.45 0.1125 -0.05
0.4625 0.1125 -0.05
0.475 0.1125 -0.05
0.4875 0.1125 -0.05
0.5 0.1125 -0.05
0.5125 0.1125 -0.05
0.525 0.1125 -0.05
0.5375 0.1125 -0.05
0.55 0.1125 -0.05
0.5625 0.1125 -0.05
0.575 0.1125 -0.05
0.5875 0.1125 -0.05
0.6 0.1125 -0.05
0.0 0.125 -0.05
0.0125 0.125 -0.05
0.025 0.125 -0.05
0.0375 0.125 -0.05
0.05 0.125 -0.05
0.0625 0.125 -0.05
0.075 0.125 -0.05
0.0875 0.125 -0.05
0.1 0.125 -0.05
0.1125 0.125 -0.05
0.125 0.125 -0.05
0.1375 0.125 -0.05
0.15 0.125 -0.05
0.1625 0.125 -0.05
0.175 0.125 -0.05
0.1875 0.125 -0.05
0.2 0.125 -0.05
0.2125 0.125 -0.05
0.225 0.125 -0.05
0.2375 0.125 -0.05
0.25 0.125 -0.05
0.2625 0.125 -0.05
0.275 0.125 -0.05
0.2875 0.125 -0.05
0.3 0.125 -0.05
0.3125 0.125 -0.05
0.325 0.125 -0.05
0.3375 0.125 -0.05
0.35 0.125 -0.05
0.3625 0.125 -0.05
0.375 0.125 -0.05
0.3875 0.125 -0.05
0.4 0.125 -0.05
0.4125 0.125 -0.05
0.425 0.125 -0.05
0.4375 0.125 -0.05
0.45 0.125 -0.05
0.4625 0.125 -0.05
0.475 0.125 -0.05
0.4875 0.125 -0.05
0.5 0.125 -0.05
0.5125 0.125 -0.05
0.525 0.125 -0.05
0.5375 0.125 -0.05
0.55 0.125 -0.05
0.5625 0.125 -0.05
0.575 0.125 -0.05
0.5875 0.125 -0.05
0.6 0.125 -0.05
0.0 0.1375 -0.05
0.0125 0.1375 -0.05
0.025 0.1375 -0.05
0.0375 0.1375 -0.05
0.05 0.1375 -0.05
0.0625 0.1375 -0.05
0.075 0.1375 -0.05
0.0875 0.1375 -0.05
[...]
CELL_DATA 16128
SCALARS P float 1
LOOKUP_TABLE default
100000.00000005998
99999.99999983572
100000.00000044431
99999.99999879222
100000.00000327628
99999.99999110673
100000.00002412975
99999.99993453253
100000.00017758737
99999.99951834761
100000.00130609435
99999.9964589295
100000.00959856705
99999.9739873961
100000.07047851183
99999.80909826599
100000.51691383136
99998.60095648462
100003.78361781688
99989.79607630498
100027.0186047883
99940.04817953026
99863.01149101117
124058.22855840415
276863.9455770185
575897.1044601308
860931.8960628012
999558.8372993052
1.0387187354623755e6
1.0535741038271303e6
1.0653271736404991e6
1.0765033771223233e6
1.0872546290412594e6
1.0975671267201076e6
1.1074277713005927e6
1.1168250294350553e6
1.125744195885507e6
1.1341658116023277e6
1.1420621468416816e6
1.1494039621168484e6
1.1561401540246767e6
1.1622592589182993e6
1.1676122977706967e6
1.1724418773618657e6
1.1758251780295384e6
1.1803008162837457e6
1.178130175939413e6
1.1920956895714165e6
100000.00000005946
99999.99999983757
100000.00000044017
99999.9999988039
100000.00000324579
99999.99999118641
100000.00002392152
99999.99993507421
100000.00017618193
99999.99952198687
100000.00129668687
99999.99648325056
100000.00953556843
99999.97415126534
100000.0700497675
99999.81022596339
100000.51394905624
99998.60862125312
100003.76485933155
99989.83549761576
100026.9653671058
99940.14036869955
99856.46486870092
123503.39418231855
275399.1422932392
575501.9753079377
864125.5821023493
1.0060189053780277e6
1.0467204326442959e6
1.0622571680352015e6
1.0743894486759766e6
1.0858220684353113e6
1.0967834925090384e6
1.107296149753834e6
1.1173629007272802e6
1.1269777742070237e6
1.1361262809416233e6
1.1447862291568802e6
1.1529252529927287e6
1.1605078795425466e6
1.1674754368976092e6
1.173807143150669e6
1.179344207358635e6
1.1843168553874637e6
1.1877925751520125e6
1.192308778605104e6
1.1900648664011895e6
1.2042354705114255e6
100000.00000005786
99999.99999984143
100000.0000004294
99999.99999883227
100000.0000031711
99999.99999138259
100000.00002340946
99999.99993640573
100000.00017274168
99999.9995308112
100000.00127425007
99999.99653966322
100000.00939578172
99999.97449086046
100000.06924770276
99999.81204096934
100000.5101227578
99998.615661201
100003.7558148932
99989.83075016737
100027.04385956269
99940.18789336582
99841.75919756302
122175.67030072183
270539.56809933693
568235.1793843929
857884.995188413
1.0019424795479683e6
1.0434313646136658e6
1.0589679687270825e6
1.0709628353777674e6
1.082238482359018e6
1.093032258102572e6
1.1033654626550414e6
1.1132406692626432e6
1.1226528130170829e6
1.1315891224889224e6
1.1400296759562967e6
1.1479449791765183e6
1.1553028021221536e6
1.162049053362312e6
1.1681666077215378e6
1.173506399057536e6
1.1782957049630939e6
1.1816347956395769e6
1.1860121129385512e6
1.1837000245846706e6
1.198061375299793e6
100000.00000005541
99999.999999848
100000.00000041221
99999.99999887784
100000.00000305015
99999.99999170311
100000.00002256379
99999.99993862737
100000.00016692882
99999.9995459405
100000.00123511575
99999.996640149
100000.00914005966
99999.9751345414
100000.067649425
99999.81594194316
100000.5008080339
99998.63727808413
100003.70746881753
99989.93375552773
100026.82385513304
99941.0243459437
99824.31836819106
120158.25085241978
262944.89525654673
557154.7603793396
849462.958962832
998102.5758340355
1.0415423316489643e6
1.0574603841831244e6
1.0695142893930664e6
1.080788801812353e6
1.0915608921074362e6
1.1018630346163488e6
1.1117043830704528e6
1.1210846347338993e6
1.129994716789295e6
1.1384176617439848e6
1.146326457166774e6
1.153690469579635e6
1.1604572427618408e6
1.166607932162119e6
1.1719965937383363e6
1.176834968754896e6
1.1802462036779916e6
1.1846529596314577e6
1.1823622946334598e6
1.197097217550849e6
100000.00000005214
99999.99999985704
100000.00000038782
99999.99999894289
100000.00000287576
99999.99999216947
100000.00002131905
99999.99994194259
100000.00015812296
99999.99956926353
100000.00117354798
99999.99680206341
100000.00871605687
99999.97623952784
100000.06478543169
99999.82331931044
100000.48193684313
99998.6851682718
100003.58701521493
99990.23325197671
100026.08481447535
99942.901616392
99812.05143444218
117603.43101245168
252837.04794988324
542083.530637697
837794.9175511275
992638.6017594879
1.0386967927407062e6
1.0550041345595703e6
1.067004517182735e6
1.078163731931413e6
1.0888050307367246e6
1.098967385474427e6
1.108663029226524e6
1.1178943707452896e6
1.1266549425171355e6
1.1349302760344818e6
1.1426959058624308e6
1.149923275671839e6
1.156562742151095e6
1.1625951696630814e6
1.1678813304841227e6
1.1726193344331144e6
1.1759667093412478e6
1.1802797781753237e6
1.1779198583505477e6
1.1930645084934384e6
100000.00000004783
99999.99999986871
100000.00000035606
99999.99999902908
100000.00000264318
99999.99999279859
100000.00001962105
99999.99994652065
100000.00014579669
99999.99960240383
100000.00108458845
99999.99704044846
100000.00807847785
99999.9779411957
100000.06025431964
99999.83535339111
100000.45006791584
99998.76928545383
100003.36584748281
99990.81108432883
100024.59980882077
99946.2343728282
99811.1832030631
114703.2875998477
240526.077878003
523097.05373894965
822736.3378026172
985588.3549555899
1.0352197715816882e6
1.0520971258566554e6
1.0640428329979277e6
1.0750635656019729e6
1.08554966590368e6
1.0955483118498991e6
1.1050751793916333e6
1.1141359223173247e6
1.1227273527514415e6
1.1308382360821383e6
1.1384474034045031e6
1.145529026540758e6
1.1520368375536115e6
1.1579514730689807e6
1.163140608585729e6
1.1677872127148616e6
1.1710837719671663e6
1.1753188407711645e6
1.1728892259623716e6
1.1885644812471438e6
100000.00000004261
99999.99999988328
100000.000000317
99999.99999913595
100000.00000235149
99999.99999359337
100000.00001745646
99999.99995241564
100000.00012975323
99999.99964604559
100000.0009659425
99999.99736279662
100000.00720332604
99999.98031523715
100000.05382013846
99999.8527731446
100000.40296307638
99998.89647912298
100003.0230201708
99991.7313774396
100022.17624364418
99951.50121815251
99824.3288881271
111670.23975233632
226398.15024531333
500310.4200868223
804006.0689521976
976650.9414424712
1.0309563177826471e6
1.048628511660387e6
1.0605092567625605e6
1.0713475151665676e6
1.081629807860816e6
1.0914136700579757e6
1.1007178079173777e6
1.1095507765448417e6
1.117912535149183e6
1.1257951324271592e6
1.1331809255174128e6
1.1400472322471265e6
1.1463518518970276e6
1.1520761716982883e6
1.1570964133412645e6
1.16158243274835e6
1.1647654273075538e6
1.168871993859125e6
1.1663199709237576e6
1.1826351261367456e6
100000.00000003657
99999.9999998999
100000.00000027145
99999.9999992613
100000.0000020081
99999.99999453548
100000.00001487212
99999.99995950687
100000.00011029495
99999.99969944324
100000.00081940665
99999.99776493065
100000.00609979237
99999.98334334242
100000.04551197836
99999.8755639749
100000.34045968359
99999.06782997456
100002.55357639819
99993.01409666527
100018.73834188742
99959.02972477884
99849.63702474075
108718.66844736964
210916.0987629263
473913.57697367866
781318.4835568292
965505.7490001109
1.0258000409284023e6
1.044588261707095e6
1.0564175930784317e6
1.0670371735147575e6
1.0770716078157984e6
1.0865930202482848e6
1.0956230639813556e6
1.1041729010767003e6
1.1122454898033792e6
1.1198361920747538e6
1.1269311274424188e6
1.133511267905741e6
1.139539312354554e6
1.1449987486475455e6
1.149776125361785e6
1.1540311034918982e6
1.1570363279993874e6
1.1609645929643703e6
1.1582322490997943e6
1.1753311750183534e6
100000.00000003
99999.99999991813
100000.00000022145
99999.9999993992
100000.00000162836
99999.99999558285
100000.00001198387
99999.99996747558
100000.00008830079
99999.99976017719
100000.00065162226
99999.99822866103
100000.00481754415
99999.98689039567
100000.03569570855
99999.90274092671
100000.26519018796
99999.27636576943
100001.97576908852
99994.61239906494
100014.39712904097
99968.76981120497
99881.44815313618
106043.84117997071
194615.64716986584
444192.5289692312
754386.1170975812
951756.9023599616
1.0195998714679861e6
1.0399457909448319e6
1.0517610383040507e6
1.0621270735941925e6
1.0718664004269356e6
1.0810725950771198e6
1.0897702254453863e6
1.0979723965100446e6
1.105684420257858e6
1.1129044308337008e6
1.1196219224283034e6
1.1258213923141642e6
1.1314706097147954e6
1.1365559912593619e6
1.1409756387036436e6
1.1448823309334305e6
1.147593381464141e6
1.1512408476541142e6
1.1482184737373062e6
1.1662638463951955e6
100000.00000002343
99999.9999999368
100000.00000016995
99999.99999954201
100000.00000123434
99999.99999667253
100000.00000896958
99999.99997582048
100000.00006518351
99999.99982426476
100000.00047382222
99999.99872231479
100000.00344586396
99999.99070484914
100000.0250795331
99999.93231196419
100000.18275138464
99999.50638345961
100001.33357033216
99996.40374174772
100009.48250219661
99980.12223159464
99912.4382037025
103799.62703804752
178094.96056528122
411556.8711232058
722949.9885417494
934930.7396259633
1.0121569383604934e6
1.0346648640534165e6
1.0465392418645115e6
1.0566210590234548e6
1.0660161991087736e6
1.0748506199929905e6
1.0831520052353998e6
1.0909343626516738e6
1.0982041639849234e6
1.1049611222246285e6
1.1111970137895553e6
1.1168990841520405e6
1.1220399020493256e6
1.126609737683049e6
1.1305202484618577e6
1.1339229951908635e6
1.13618589506077e6
1.139418696112765e6
1.135966550777153e6
1.1551796615953788e6
100000.0000000167
99999.999999955
100000.00000011997
99999.9999996798
100000.00000085281
99999.9999977284
100000.00000604545
99999.99998392464
100000.00004270382
99999.99988667737
100000.00030037946
99999.99920478297
100000.00210239779
99999.99444983037
100000.01462856214
99999.96151092264
100000.10107439039
99999.73513688505
100000.69220705317
99998.20141333166
100004.51721902056
99991.90833520464
99936.49610249927
102078.56883708588
161993.31425121
376565.8202951325
686820.1703916858
914472.6343857906
1.0032037465015267e6
1.028693693701861e6
1.0407532058527234e6
1.0505274413686292e6
1.059527846750046e6
1.0679300124627012e6
1.0757654177110044e6
1.083047418997043e6
1.089781597170339e6
1.0959668440819068e6
1.1015944383290138e6
1.1066512107466809e6
1.1111108339027385e6
1.11496343924816e6
1.1181294413405575e6
1.1207565320689385e6
1.1222608560676202e6
1.1247515338470524e6
1.1205121749063497e6
1.1410690395114722e6
100000.00000001093
99999.9999999714
100000.00000007491
99999.99999980403
100000.00000051058
99999.99999867429
100000.00000343156
99999.99999115804
100000.0000226726
99999.9999422037
100000.00014630606
99999.99963276272
100000.0009122193
99999.9977636235
100000.0053902091
99999.98730103708
100000.02897439511
99999.93700691234
100000.12620173942
99999.7886606471
100000.12313911344
100002.55077891004
99951.09356633555
100899.43040562942
146955.5320872009
339947.8793413959
645928.6932548514
889754.918419322
992381.7796944246
1.0219550560877045e6
1.0344039347554136e6
1.0438603893593677e6
1.0524156816853196e6
1.0603222073157753e6
1.0676169800606791e6
1.074310673348888e6
1.0804050425063772e6
1.0858945960474554e6
1.0907659760464763e6
1.0950011366322073e6
1.098570608019318e6
1.1014617203924845e6
1.1036035999439952e6
1.1051498958470467e6
1.1055802827304092e6
1.1070440816664107e6
1.101731770614548e6
1.1240553050844055e6
100000.0000000059
99999.99999998508
100000.00000003791
99999.99999990631
100000.00000022961
99999.9999994461
100000.00000130912
99999.99999699609
100000.00000660056
99999.9999864815
100000.00002422112
99999.99996967961
99999.99998153154
100000.00033722921
99999.99826531498
100000.00705067492
99999.97415507925
100000.08939525537
99999.70197426969
100000.96998721577
99996.87236261913
100010.4629044655
99957.96094163755
100207.6035041571
133579.98861079803
302607.9348257914
600392.9164945566
860100.5327779314
979216.6074668306
1.014331732117948e6
1.0274889888851937e6
1.0366398628919603e6
1.044702535546227e6
1.0520488337269654e6
1.0587250822526477e6
1.0647367335000501e6
1.070077447675038e6
1.0747315032630374e6
1.0786728325319372e6
1.0818670985082027e6
1.0842649262014576e6
1.0858251173244761e6
1.086448822965433e6
1.086237095375756e6
1.0846494374445411e6
1.0838362999506474e6
1.075851914054735e6
1.0993691734158166e6
100000.00000000204
99999.99999999537
100000.00000000982
99999.99999998228
100000.0000000233
100000.00000000602
99999.99999978836
100000.00000112534
99999.9999953892
100000.0000169172
99999.99994161166
100000.00019386504
99999.99937323324
100000.00198752382
99999.99378871484
100000.01919261724
99999.9412247051
100000.17870307644
99999.45980447276
100001.6256277415
99995.12303490215
100014.54381405239
99961.64986717157
99891.66514867688
122351.47080786485
265614.6405495448
550584.8453076866
824828.8942144659
963093.5336950825
1.0056463489225995e6
1.019997024446997e6
1.0288911023372734e6
1.0364207485518736e6
1.0431437311421023e6
1.049123370368317e6
1.0543574067615743e6
1.0588263973840196e6
1.062497543462823e6
1.0653231417862817e6
1.0672415437632247e6
1.0681726902181264e6
1.0680390823658742e6
1.0667114303714945e6
1.0642810191592264e6
1.0602704500311112e6
1.0569556567720724e6
1.0463506779248975e6
1.072697058606116e6
99999.99999999962
100000.00000000221
99999.99999999163
100000.00000003078
99999.99999989443
100000.00000034754
99999.99999888631
100000.00000350153
99999.99998915367
100000.00003321185
99999.99989924437
100000.00030335634
99999.99909234131
100000.00270164972
99999.99199360132
100000.02363992725
99999.93041646515
100000.20428318274
99999.40157561262
100001.74973019911
99994.89855228468
100014.5946316628
99966.80843182636
99814.23105203388
113567.52770678584
230160.69667072856
497197.7750851146
783329.7962066313
943238.885191352
995633.9040027029
1.0118989783653279e6
1.0206429881888024e6
1.027612526505434e6
1.0336541210365362e6
1.0388625732787478e6
1.0432259376637773e6
1.0467054672559557e6
1.049241471004333e6
1.0507487915210226e6
1.0511127959233804e6
1.0501728967641755e6
1.0477312604595015e6
1.0434620419597467e6
1.037112189645197e6
1.0276546358198544e6
1.0164828701314697e6
994176.1664593547
1.0121278820552108e6
99999.99999999811
100000.00000000578
99999.99999998216
100000.00000005469
99999.99999983494
100000.00000049433
99999.99999853052
100000.0000043408
99999.9999872445
100000.0000373098
99999.99989130688
100000.00031553097
99999.99908690232
100000.00263494602
99999.99241545702
100000.0217819206
99999.93757420202
100000.17857203697
99999.49007131306
100001.4535530819
99995.87184957087
100011.43543483688
99975.75084297049
99848.337084588
107277.28775156505
197489.48145602972
441297.3873380338
735168.5932185053
918715.3007603562
983905.5732577018
1.0031341432851268e6
1.011924650667465e6
1.0183295890796535e6
1.0236414947445156e6
1.0280129230890695e6
1.0314226450352403e6
1.0338073789736368e6
1.0350723502520185e6
1.0350828977684103e6
1.0336562881527055e6
1.030540628427094e6
1.025414061178218e6
1.0178081825064365e6
1.0073398677079325e6
993014.0482143895
976546.7635860223
948832.0835700887
971868.6137133107
99999.99999999764
100000.00000000696
99999.99999997969
100000.00000005937
99999.99999982846
100000.00000049415
99999.99999858192
100000.0000040532
99999.99998845604
100000.00003276777
99999.99990729074
100000.0002614741
99999.9992648422
100000.00206050239
99999.99424316706
100000.01603120015
99999.95551119409
100000.12300961035
99999.66124146212
100000.9285560839
99997.47463137604
100006.63325732524
99987.43362748815
99905.88433093947
103259.4363141147
168782.9684195441
384341.1866078299
680221.2352304828
888443.9100818866
969904.0026430533
993588.8275524733
1.002759221633979e6
1.0086312933136406e6
1.0131806870861115e6
1.0166631750843846e6
1.0190528928593881e6
1.0202580069607573e6
1.0201394048439438e6
1.018497448387421e6
1.0150507212469283e6
1.0093827507145901e6
1.0008801311875874e6
988511.954943444
970699.5206746102
943756.2983497523
902792.5981731568
824340.3969986204
696167.754558375
99999.99999999766
100000.00000000643
99999.99999998174
100000.00000005128
99999.99999985522
100000.00000040465
99999.99999887309
100000.00000312629
99999.99999136387
100000.00002374868
99999.99993500869
100000.00017691741
99999.99952122984
100000.00128699787
99999.99656704288
100000.00907375681
99999.97628081015
100000.0611555843
99999.84508840628
100000.38305417921
99999.08849371405
100001.95011021593
99998.62163567536
99946.59027625123
101062.47201044009
145009.15316696666
328148.0347847908
618829.6947081116
851271.1862580789
952854.2412386832
983065.1819002279
993153.5893867367
998581.0980118018
1.0023578986238533e6
1.0049191916199117e6
1.0062473170288561e6
1.0062223931155268e6
1.0046582745991591e6
1.0012907083809178e6
995736.252946583
987421.7201618993
975482.9844138774
958486.4808341527
934211.293198055
898120.8808406068
844294.3613369109
753314.9290574406
617103.5971348385
99999.99999999786
100000.00000000485
99999.99999998597
100000.0000000379
99999.99999989673
100000.00000027956
99999.9999992477
100000.00000200892
99999.99999467589
100000.00001397611
99999.9999637205
100000.00009287715
99999.99976637763
100000.00057413714
99999.99863393068
100000.00309734886
99999.99351662007
100000.0115728341
99999.98737197625
99999.97583866898
100000.24877074077
99998.7150298193
100006.10510454708
99966.46495818013
100110.77360285672
126740.28870463531
274799.49277533765
551955.137443877
806099.7681292925
931720.8809545181
971237.8672437444
983082.4162717299
988240.5306933775
991266.5182787111
992898.7405230855
993153.9806205275
991889.291106448
988881.804315137
983810.5969590594
976215.7977428768
965419.6329632904
950422.5874905145
929644.0752146469
900764.3917499786
859551.7971205644
801083.1456192799
712324.3955194078
591794.7542357051
99999.99999999862
100000.0000000033
99999.99999999098
100000.00000002368
99999.99999993772
100000.0000001602
99999.99999959121
100000.00000102406
99999.99999748773
100000.00000598318
99999.9999863414
100000.00002914727
99999.99994507035
100000.00007566517
100000.00001661769
99999.99928619611
100000.00394537405
99999.98327839395
100000.06335152165
99999.774447199
100000.77252181909
99997.4158064353
100008.5137251277
99976.44993474413
99847.90653365591
113986.2223926605
226460.0596562725
481289.38996159483
752094.8114928938
905189.6225774606
957596.5963006966
972463.8831638609
977659.8987106251
980000.9666685384
980724.0610801849
979925.5229985312
977454.9531288284
973063.4905172981
966394.4753014175
956945.5358722534
943997.3338302915
926527.1352667413
903005.0148926036
871328.0069361016
828029.883118496
769563.5567916614
687955.0041544248
584785.6903128499
99999.99999999914
100000.00000000175
99999.99999999514
100000.00000001198
99999.99999997017
100000.0000000697
99999.99999984192
100000.00000033314
99999.99999937677
100000.0000008574
100000.00000012341
99999.99999248938
100000.00004129569
99999.99982724572
100000.00064410594
99999.99774808764
100000.00755283002
99999.97540143784
100000.0783566517
99999.75475644879
100000.75652256163
99997.69709663338
100006.79300525312
99985.52759867824
99859.73918747525
106127.63329640492
185115.65808778888
409275.1602362231
688959.6424883326
871700.5540292423
941374.5618456277
961123.4341806942
966864.5236145352
968649.2139566819
968514.2515953456
966709.507528372
963102.8923802769
957433.5399748231
949330.9911046022
938284.6430699364
923587.3961044434
904274.3796367383
878981.5600503832
845953.796552454
802562.5872455472
746444.4274380079
673032.6373997431
584700.9569093736
99999.99999999967
100000.00000000092
99999.99999999796
100000.00000000442
99999.9999999911
100000.00000001425
99999.99999998757
99999.9999999559
100000.00000033704
99999.99999847032
100000.00000586873
99999.99997929914
100000.00006931179
99999.99977613977
100000.00070360952
99999.99783650128
100000.00652864166
99999.98063099865
100000.05653814187
99999.83764416237
100000.45808820584
99998.73629082636
100003.28111565228
99995.11223543958
99921.99193995692
102031.90005222269
152243.4728624613
338989.9578319353
617250.0217459374
829572.0329886853
921470.467615944
948741.3199239516
955834.3926740794
957283.566169037
956377.2431812705
953640.531188688
948993.7164139834
942183.1840578119
932844.0130944772
920485.0637997483