# vtk DataFile Version 2.0
JuliaCFD
ASCII
DATASET UNSTRUCTURED_GRID

POINTS 32898 float
0.0 0.0 -0.05
0.0125 0.0 -0.05
0.025 0.0 -0.05
0.0375 0.0 -0.05
0.05 0.0 -0.05
0.0625 0.0 -0.05
0.075 0.0 -0.05
0.0875 0.0 -0.05
0.1 0.0 -0.05
0.1125 0.0 -0.05
0.125 0.0 -0.05
0.1375 0.0 -0.05
0.15 0.0 -0.05
0.1625 0.0 -0.05
0.175 0.0 -0.05
0.1875 0.0 -0.05
0.2 0.0 -0.05
0.2125 0.0 -0.05
0.225 0.0 -0.05
0.2375 0.0 -0.05
0.25 0.0 -0.05
0.2625 0.0 -0.05
0.275 0.0 -0.05
0.2875 0.0 -0.05
0.3 0.0 -0.05
0.3125 0.0 -0.05
0.325 0.0 -0.05
0.3375 0.0 -0.05
0.35 0.0 -0.05
0.3625 0.0 -0.05
0.375 0.0 -0.05
0.3875 0.0 -0.05
0.4 0.0 -0.05
0.4125 0.0 -0.05
0.425 0.0 -0.05
0.4375 0.0 -0.05
0.45 0.0 -0.05
0.4625 0.0 -0.05
0.475 0.0 -0.05
0.4875 0.0 -0.05
0.5 0.0 -0.05
0.5125 0.0 -0.05
0.525 0.0 -0.05
0.5375 0.0 -0.05
0.55 0.0 -0.05
0.5625 0.0 -0.05
0.575 0.0 -0.05
0.5875 0.0 -0.05
0.6 0.0 -0.05
0.0 0.0125 -0.05
0.0125 0.0125 -0.05
0.025 0.0125 -0.05
0.0375 0.0125 -0.05
0.05 0.0125 -0.05
0.0625 0.0125 -0.05
0.075 0.0125 -0.05
0.0875 0.0125 -0.05
0.1 0.0125 -0.05
0.1125 0.0125 -0.05
0.125 0.0125 -0.05
0.1375 0.0125 -0.05
0.15 0.0125 -0.05
0.1625 0.0125 -0.05
0.175 0.0125 -0.05
0.1875 0.0125 -0.05
0.2 0.0125 -0.05
0.2125 0.0125 -0.05
0.225 0.0125 -0.05
0.2375 0.0125 -0.05
0.25 0.0125 -0.05
0.2625 0.0125 -0.05
0.275 0.0125 -0.05
0.2875 0.0125 -0.05
0.3 0.0125 -0.05
0.3125 0.0125 -0.05
0.325 0.0125 -0.05
0.3375 0.0125 -0.05
0.35 0.0125 -0.05
0.3625 0.0125 -0.05
0.375 0.0125 -0.05
0.3875 0.0125 -0.05
0.4 0.0125 -0.05
0.4125 0.0125 -0.05
0.425 0.0125 -0.05
0.4375 0.0125 -0.05
0.45 0.0125 -0.05
0.4625 0.0125 -0.05
0.475 0.0125 -0.05
0.4875 0.0125 -0.05
0.5 0.0125 -0.05
0.5125 0.0125 -0.05
0.525 0.0125 -0.05
0.5375 0.0125 -0.05
0.55 0.0125 -0.05
0.5625 0.0125 -0.05
0.575 0.0125 -0.05
0.5875 0.0125 -0.05
0.6 0.0125 -0.05
0.0 0.025 -0.05
0.0125 0.025 -0.05
0.025 0.025 -0.05
0.0375 0.025 -0.05
0.05 0.025 -0.05
0.0625 0.025 -0.05
0.075 0.025 -0.05
0.0875 0.025 -0.05
0.1 0.025 -0.05
0.1125 0.025 -0.05
0.125 0.025 -0.05
0.1375 0.025 -0.05
0.15 0.025 -0.05
0.1625 0.025 -0.05
0.175 0.025 -0.05
0.1875 0.025 -0.05
0.2 0.025 -0.05
0.2125 0.025 -0.05
0.225 0.025 -0.05
0.2375 0.025 -0.05
0.25 0.025 -0.05
0.2625 0.025 -0.05
0.275 0.025 -0.05
0.2875 0.025 -0.05
0.3 0.025 -0.05
0.3125 0.025 -0.05
0.325 0.025 -0.05
0.3375 0.025 -0.05
0.35 0.025 -0.05
0.3625 0.025 -0.05
0.375 0.025 -0.05
0.3875 0.025 -0.05
0.4 0.025 -0.05
0.4125 0.025 -0.05
0.425 0.025 -0.05
0.4375 0.025 -0.05
0.45 0.025 -0.05
0.4625 0.025 -0.05
0.475 0.025 -0.05
0.4875 0.025 -0.05
0.5 0.025 -0.05
0.5125 0.025 -0.05
0.525 0.025 -0.05
0.5375 0.025 -0.05
0.55 0.025 -0.05
0.5625 0.025 -0.05
0.575 0.025 -0.05
0.5875 0.025 -0.05
0.6 0.025 -0.05
0.0 0.0375 -0.05
0.0125 0.0375 -0.05
0.025 0.0375 -0.05
0.0375 0.0375 -0.05
0.05 0.0375 -0.05
0.0625 0.0375 -0.05
0.075 0.0375 -0.05
0.0875 0.0375 -0.05
0.1 0.0375 -0.05
0.1125 0.0375 -0.05
0.125 0.0375 -0.05
0.1375 0.0375 -0.05
0.15 0.0375 -0.05
0.1625 0.0375 -0.05
0.175 0.0375 -0.05
0.1875 0.0375 -0.05
0.2 0.0375 -0.05
0.2125 0.0375 -0.05
0.225 0.0375 -0.05
0.2375 0.0375 -0.05
0.25 0.0375 -0.05
0.2625 0.0375 -0.05
0.275 0.0375 -0.05
0.2875 0.0375 -0.05
0.3 0.0375 -0.05
0.3125 0.0375 -0.05
0.325 0.0375 -0.05
0.3375 0.0375 -0.05
0.35 0.0375 -0.05
0.3625 0.0375 -0.05
0.375 0.0375 -0.05
0.3875 0.0375 -0.05
0.4 0.0375 -0.05
0.4125 0.0375 -0.05
0.425 0.0375 -0.05
0.4375 0.0375 -0.05
0.45 0.0375 -0.05
0.4625 0.0375 -0.05
0.475 0.0375 -0.05
0.4875 0.0375 -0.05
0.5 0.0375 -0.05
0.5125 0.0375 -0.05
0.525 0.0375 -0.05
0.5375 0.0375 -0.05
0.55 0.0375 -0.05
0.5625 0.0375 -0.05
0.575 0.0375 -0.05
0.5875 0.0375 -0.05
0.6 0.0375 -0.05
0.0 0.05 -0.05
0.0125 0.05 -0.05
0.025 0.05 -0.05
0.0375 0.05 -0.05
0.05 0.05 -0.05
0.0625 0.05 -0.05
0.075 0.05 -0.05
0.0875 0.05 -0.05
0.1 0.05 -0.05
0.1125 0.05 -0.05
0.125 0.05 -0.05
0.1375 0.05 -0.05
0.15 0.05 -0.05
0.1625 0.05 -0.05
0.175 0.05 -0.05
0.1875 0.05 -0.05
0.2 0.05 -0.05
0.2125 0.05 -0.05
0.225 0.05 -0.05
0.2375 0.05 -0.05
0.25 0.05 -0.05
0.2625 0.05 -0.05
0.275 0.05 -0.05
0.2875 0.05 -0.05
0.3 0.05 -0.05
0.3125 0.05 -0.05
0.325 0.05 -0.05
0.3375 0.05 -0.05
0.35 0.05 -0.05
0.3625 0.05 -0.05
0.375 0.05 -0.05
0.3875 0.05 -0.05
0.4 0.05 -0.05
0.4125 0.05 -0.05
0.425 0.05 -0.05
0.4375 0.05 -0.05
0.45 0.05 -0.05
0.4625 0.05 -0.05
0.475 0.05 -0.05
0.4875 0.05 -0.05
0.5 0.05 -0.05
0.5125 0.05 -0.05
0.525 0.05 -0.05
0.5375 0.05 -0.05
0.55 0.05 -0.05
0.5625 0.05 -0.05
0.575 0.05 -0.05
0.5875 0.05 -0.05
0.6 0.05 -0.05
0.0 0.0625 -0.05
0.0125 0.0625 -0.05
0.025 0.0625 -0.05
0.0375 0.0625 -0.05
0.05 0.0625 -0.05
0.0625 0.0625 -0.05
0.075 0.0625 -0.05
0.0875 0.0625 -0.05
0.1 0.0625 -0.05
0.1125 0.0625 -0.05
0.125 0.0625 -0.05
0.1375 0.0625 -0.05
0.15 0.0625 -0.05
0.1625 0.0625 -0.05
0.175 0.0625 -0.05
0.1875 0.0625 -0.05
0.2 0.0625 -0.05
0.2125 0.0625 -0.05
0.225 0.0625 -0.05
0.2375 0.0625 -0.05
0.25 0.0625 -0.05
0.2625 0.0625 -0.05
0.275 0.0625 -0.05
0.2875 0.0625 -0.05
0.3 0.0625 -0.05
0.3125 0.0625 -0.05
0.325 0.0625 -0.05
0.3375 0.0625 -0.05
0.35 0.0625 -0.05
0.3625 0.0625 -0.05
0.375 0.0625 -0.05
0.3875 0.0625 -0.05
0.4 0.0625 -0.05
0.4125 0.0625 -0.05
0.425 0.0625 -0.05
0.4375 0.0625 -0.05
0.45 0.0625 -0.05
0.4625 0.0625 -0.05
0.475 0.0625 -0.05
0.4875 0.0625 -0.05
0.5 0.0625 -0.05
0.5125 0.0625 -0.05
0.525 0.0625 -0.05
0.5375 0.0625 -0.05
0.55 0.0625 -0.05
0.5625 0.0625 -0.05
0.575 0.0625 -0.05
0.5875 0.0625 -0.05
0.6 0.0625 -0.05
0.0 0.075 -0.05
0.0125 0.075 -0.05
0.025 0.075 -0.05
0.0375 0.075 -0.05
0.05 0.075 -0.05
0.0625 0.075 -0.05
0.075 0.075 -0.05
0.0875 0.075 -0.05
0.1 0.075 -0.05
0.1125 0.075 -0.05
0.125 0.075 -0.05
0.1375 0.075 -0.05
0.15 0.075 -0.05
0.1625 0.075 -0.05
0.175 0.075 -0.05
0.1875 0.075 -0.05
0.2 0.075 -0.05
0.2125 0.075 -0.05
0.225 0.075 -0.05
0.2375 0.075 -0.05
0.25 0.075 -0.05
0.2625 0.075 -0.05
0.275 0.075 -0.05
0.2875 0.075 -0.05
0.3 0.075 -0.05
0.3125 0.075 -0.05
0.325 0.075 -0.05
0.3375 0.075 -0.05
0.35 0.075 -0.05
0.3625 0.075 -0.05
0.375 0.075 -0.05
0.3875 0.075 -0.05
0.4 0.075 -0.05
0.4125 0.075 -0.05
0.425 0.075 -0.05
0.4375 0.075 -0.05
0.45 0.075 -0.05
0.4625 0.075 -0.05
0.475 0.075 -0.05
0.4875 0.075 -0.05
0.5 0.075 -0.05
0.5125 0.075 -0.05
0.525 0.075 -0.05
0.5375 0.075 -0.05
0.55 0.075 -0.05
0.5625 0.075 -0.05
0.575 0.075 -0.05
0.5875 0.075 -0.05
0.6 0.075 -0.05
0.0 0.0875 -0.05
0.0125 0.0875 -0.05
0.025 0.0875 -0.05
0.0375 0.0875 -0.05
0.05 0.0875 -0.05
0.0625 0.0875 -0.05
0.075 0.0875 -0.05
0.0875 0.0875 -0.05
0.1 0.0875 -0.05
0.1125 0.0875 -0.05
0.125 0.0875 -0.05
0.1375 0.0875 -0.05
0.15 0.0875 -0.05
0.1625 0.0875 -0.05
0.175 0.0875 -0.05
0.1875 0.0875 -0.05
0.2 0.0875 -0.05
0.2125 0.0875 -0.05
0.225 0.0875 -0.05
0.2375 0.0875 -0.05
0.25 0.0875 -0.05
0.2625 0.0875 -0.05
0.275 0.0875 -0.05
0.2875 0.0875 -0.05
0.3 0.0875 -0.05
0.3125 0.0875 -0.05
0.325 0.0875 -0.05
0.3375 0.0875 -0.05
0.35 0.0875 -0.05
0.3625 0.0875 -0.05
0.375 0.0875 -0.05
0.3875 0.0875 -0.05
0.4 0.0875 -0.05
0.4125 0.0875 -0.05
0.425 0.0875 -0.05
0.4375 0.0875 -0.05
0.45 0.0875 -0.05
0.4625 0.0875 -0.05
0.475 0.0875 -0.05
0.4875 0.0875 -0.05
0.5 0.0875 -0.05
0.5125 0.0875 -0.05
0.525 0.0875 -0.05
0.5375 0.0875 -0.05
0.55 0.0875 -0.05
0.5625 0.0875 -0.05
0.575 0.0875 -0.05
0.5875 0.0875 -0.05
0.6 0.0875 -0.05
0.0 0.1 -0.05
0.0125 0.1 -0.05
0.025 0.1 -0.05
0.0375 0.1 -0.05
0.05 0.1 -0.05
0.0625 0.1 -0.05
0.075 0.1 -0.05
0.0875 0.1 -0.05
0.1 0.1 -0.05
0.1125 0.1 -0.05
0.125 0.1 -0.05
0.1375 0.1 -0.05
0.15 0.1 -0.05
0.1625 0.1 -0.05
0.175 0.1 -0.05
0.1875 0.1 -0.05
0.2 0.1 -0.05
0.2125 0.1 -0.05
0.225 0.1 -0.05
0.2375 0.1 -0.05
0.25 0.1 -0.05
0.2625 0.1 -0.05
0.275 0.1 -0.05
0.2875 0.1 -0.05
0.3 0.1 -0.05
0.3125 0.1 -0.05
0.325 0.1 -0.05
0.3375 0.1 -0.05
0.35 0.1 -0.05
0.3625 0.1 -0.05
0.375 0.1 -0.05
0.3875 0.1 -0.05
0.4 0.1 -0.05
0.4125 0.1 -0.05
0.425 0.1 -0.05
0.4375 0.1 -0.05
0.45 0.1 -0.05
0.4625 0.1 -0.05
0.475 0.1 -0.05
0.4875 0.1 -0.05
0.5 0.1 -0.05
0.5125 0.1 -0.05
0.525 0.1 -0.05
0.5375 0.1 -0.05
0.55 0.1 -0.05
0.5625 0.1 -0.05
0.575 0.1 -0.05
0.5875 0.1 -0.05
0.6 0.1 -0.05
0.0 0.1125 -0.05
0.0125 0.1125 -0.05
0.025 0.1125 -0.05
0.0375 0.1125 -0.05
0.05 0.1125 -0.05
0.0625 0.1125 -0.05
0.075 0.1125 -0.05
0.0875 0.1125 -0.05
0.1 0.1125 -0.05
0.1125 0.1125 -0.05
0.125 0.1125 -0.05
0.1375 0.1125 -0.05
0.15 0.1125 -0.05
0.1625 0.1125 -0.05
0.175 0.1125 -0.05
0.1875 0.1125 -0.05
0.2 0.1125 -0.05
0.2125 0.1125 -0.05
0.225 0.1125 -0.05
0.2375 0.1125 -0.05
0.25 0.1125 -0.05
0.2625 0.1125 -0.05
0.275 0.1125 -0.05
0.2875 0.1125 -0.05
0.3 0.1125 -0.05
0.3125 0.1125 -0.05
0.325 0.1125 -0.05
0.3375 0.1125 -0.05
0.35 0.1125 -0.05
0.3625 0.1125 -0.05
0.375 0.1125 -0.05
0.3875 0.1125 -0.05
0.4 0.1125 -0.05
0.4125 0.1125 -0.05
0.425 0.1125 -0.05
0.4375 0.1125 -0.05
0.45 0.1125 -0.05
0.4625 0.1125 -0.05
0.475 0.1125 -0.05
0.4875 0.1125 -0.05
0.5 0.1125 -0.05
0.5125 0.1125 -0.05
0.525 0.1125 -0.05
0.5375 0.1125 -0.05
0.55 0.1125 -0.05
0.5625 0.1125 -0.05
0.575 0.1125 -0.05
0.5875 0.1125 -0.05
0.6 0.1125 -0.05
0.0 0.125 -0.05
0.0125 0.125 -0.05
0.025 0.125 -0.05
0.0375 0.125 -0.05
0.05 0.125 -0.05
0.0625 0.125 -0.05
0.075 0.125 -0.05
0.0875 0.125 -0.05
0.1 0.125 -0.05
0.1125 0.125 -0.05
0.125 0.125 -0.05
0.1375 0.125 -0.05
0.15 0.125 -0.05
0.1625 0.125 -0.05
0.175 0.125 -0.05
0.1875 0.125 -0.05
0.2 0.125 -0.05
0.2125 0.125 -0.05
0.225 0.125 -0.05
0.2375 0.125 -0.05
0.25 0.125 -0.05
0.2625 0.125 -0.05
0.275 0.125 -0.05
0.2875 0.125 -0.05
0.3 0.125 -0.05
0.3125 0.125 -0.05
0.325 0.125 -0.05
0.3375 0.125 -0.05
0.35 0.125 -0.05
0.3625 0.125 -0.05
0.375 0.125 -0.05
0.3875 0.125 -0.05
0.4 0.125 -0.05
0.4125 0.125 -0.05
0.425 0.125 -0.05
0.4375 0.125 -0.05
0.45 0.125 -0.05
0.4625 0.125 -0.05
0.475 0.125 -0.05
0.4875 0.125 -0.05
0.5 0.125 -0.05
0.5125 0.125 -0.05
0.525 0.125 -0.05
0.5375 0.125 -0.05
0.55 0.125 -0.05
0.5625 0.125 -0.05
0.575 0.125 -0.05
0.5875 0.125 -0.05
0.6 0.125 -0.05
0.0 0.1375 -0.05
0.0125 0.1375 -0.05
0.025 0.1375 -0.05
0.0375 0.1375 -0.05
0.05 0.1375 -0.05
0.0625 0.1375 -0.05
0.075 0.1375 -0.05
0.0875 0.1375 -0.05
[...]
CELL_DATA 16128
SCALARS P float 1
LOOKUP_TABLE default
100000.00000005978
99999.99999983578
100000.00000044389
99999.99999879158
100000.00000328176
99999.99999108203
100000.00002422385
99999.99993420145
100000.00017869446
99999.99951476767
100000.00131739341
99999.99642391442
100000.00970554046
99999.97366433416
100000.07144490251
99999.80623049266
100000.52536626688
99998.57618525055
100003.85578822882
99989.58791094898
100027.5721301762
99939.62449866328
99832.00325448657
121434.06529559828
267652.3967852521
563403.4356587196
852798.0326675449
997235.7213317481
1.0384575892539431e6
1.0536127986776354e6
1.0654073852839158e6
1.0766045371666902e6
1.0873749789376813e6
1.097705243835035e6
1.107581961900513e6
1.1169935386488177e6
1.1259253263173588e6
1.1343579782666177e6
1.1422638990438308e6
1.1496139923219543e6
1.156357289592814e6
1.1624824700815007e6
1.1678406264557552e6
1.1726745471407066e6
1.176061169797672e6
1.180539818360594e6
1.1783700483653727e6
1.1923387549686504e6
100000.0000000591
99999.99999983808
100000.00000043854
99999.99999880612
100000.00000324324
99999.99999118471
100000.00002395202
99999.99993492012
100000.00017679717
99999.9995197696
100000.00130422064
99999.99645859849
100000.00961414681
99999.97390556503
100000.07080686087
99999.80791967246
100000.52090989897
99998.58777044661
100003.82683425365
99989.65348818742
100027.4569992294
99939.72594795664
99829.03995150047
120917.96767975744
266198.758244462
562907.4058609616
855842.3303596328
1.0036162518177748e6
1.046436810689785e6
1.0622932722217045e6
1.074474971666303e6
1.0859318906126576e6
1.0969136808876668e6
1.1074442450916097e6
1.1175267425990754e6
1.1271554130995162e6
1.1363159466598197e6
1.1449863150444357e6
1.1531343071434621e6
1.1607246018254273e6
1.1676986673968937e6
1.1740358706371803e6
1.179577501314156e6
1.1845539794241593e6
1.1880325671968835e6
1.1925514084506177e6
1.1903080561715285e6
1.2044818193536617e6
100000.00000005735
99999.99999984309
100000.00000042548
99999.99999884127
100000.0000031494
99999.9999914337
100000.00002329194
99999.99993666515
100000.000172203
99999.99953181374
100000.00127280898
99999.99654001424
100000.00940474261
99999.97443891413
100000.06946570174
99999.8112346288
100000.51290879409
99998.60643853353
100003.78538124917
99989.73877603035
100027.29610697398
99940.12949515965
99821.14348426771
119693.15218093873
261472.51711000624
555654.6960575465
849499.0324357513
999467.9317365468
1.0431309011782075e6
1.0589996525447867e6
1.0710450259104047e6
1.0823449803166096e6
1.0931591841514732e6
1.1035104268730846e6
1.1134015311456094e6
1.1228276169100034e6
1.1317760846887485e6
1.1402271783433e6
1.1481515638359531e6
1.1555171685507584e6
1.162270046226516e6
1.168393222858759e6
1.1737377157545062e6
1.1785309904441235e6
1.1818730944200656e6
1.186253174674543e6
1.1839417411633425e6
1.1983064136211735e6
100000.00000005463
99999.99999985077
100000.00000040501
99999.99999889618
100000.00000300203
99999.99999182759
100000.00002224061
99999.99993946266
100000.00016477922
99999.99955144913
100000.00122107044
99999.99667574542
100000.00905048622
99999.9753580085
100000.06709776036
99999.81728606124
100000.49758720261
99998.64482723306
100003.69026172008
99989.97152683427
100026.73182937824
99941.49742736554
99813.07294452815
117836.5320736579
254087.66516491768
544571.591116204
840870.120127822
995484.430421815
1.0412056010804613e6
1.0574840015625341e6
1.0695931168790362e6
1.0808932990195358e6
1.0916865383712302e6
1.10200715513515e6
1.1118646664772576e6
1.1212590207820127e6
1.1301813584094686e6
1.1386149030809489e6
1.1465328188138113e6
1.1539046400465062e6
1.1606780632591688e6
1.1668343991356397e6
1.1722277919788114e6
1.1770701661934748e6
1.1804844539635908e6
1.1848939983681384e6
1.1826040021970095e6
1.1973423672340333e6
100000.00000005055
99999.99999986113
100000.00000037703
99999.9999989721
100000.00000279778
99999.99999237887
100000.00002075847
99999.99994344419
100000.000154104
99999.9995800146
100000.00114480304
99999.99687887292
100000.00851095324
99999.97678678793
100000.06332650897
99999.82720471392
100000.4716008582
99998.71262656631
100003.51416956153
99990.42578000143
100025.57928498257
99944.06866568288
99810.87157897568
115493.5356627754
244270.90664091756
529507.1937103209
828924.1960093459
989822.9911780416
1.038312864324599e6
1.0550202922934692e6
1.0670810939425884e6
1.0782667153155673e6
1.0889294313083994e6
1.0991104209385493e6
1.1088223230043056e6
1.1180678175712198e6
1.1268406655032106e6
1.1351266011393217e6
1.1429013446185857e6
1.1501365146429604e6
1.1567826268300782e6
1.162820704451359e6
1.1681116138334775e6
1.1728536427268751e6
1.176204115685432e6
1.1805200071573863e6
1.1781607914600892e6
1.193309006461964e6
100000.00000004581
99999.99999987421
100000.00000034158
99999.9999990688
100000.00000253473
99999.99999309331
100000.00001882002
99999.999948697
100000.00013988116
99999.99961848649
100000.00104085582
99999.99715938854
100000.00775494425
99999.97882134737
100000.05785975284
99999.8418682448
100000.43234372103
99998.81749796242
100003.23474449327
99991.16658098769
100023.65374889321
99948.2257370652
99818.7817123168
112846.80771140798
232335.77620231663
510550.42981988535
813517.4207555866
982509.5876575706
1.0347701066734699e6
1.052103350630895e6
1.0641169659965443e6
1.0751650392296924e6
1.0856728400312243e6
1.0956902887414782e6
1.1052335126372161e6
1.114308455196866e6
1.1229121729392423e6
1.1310336474752042e6
1.1386519064274123e6
1.1457413054190397e6
1.1522557431659352e6
1.1581760200880605e6
1.1633699125017736e6
1.1680205617781735e6
1.1713202626088092e6
1.1755581874847235e6
1.1731293139070098e6
1.1888082643627336e6
100000.00000004025
99999.9999998898
100000.00000029895
99999.99999918533
100000.00000221634
99999.99999396328
100000.00001644372
99999.99995518793
100000.00012215906
99999.9996668574
100000.00090888087
99999.9975193107
100000.006773848
99999.9814941901
100000.0505826378
99999.86166654411
100000.37852563962
99998.96364382826
100002.83842162458
99992.2375598958
100020.81724032134
99954.36101435478
99837.83994313581
110096.7584606805
218671.28682219403
487833.9851249708
794377.3386600479
973236.45596916
1.0304177257141276e6
1.0486215097416071e6
1.0605807582897218e6
1.0714475397844024e6
1.081751781500942e6
1.0915545771724894e6
1.1008751416606368e6
1.1097223320543815e6
1.1180963640967566e6
1.1259895144231974e6
1.1333843474030113e6
1.140258374058921e6
1.1465695692301805e6
1.15229949049338e6
1.1573244689500034e6
1.1618145302955578e6
1.16500069289597e6
1.1691101388180777e6
1.1665588877503308e6
1.1828778861191145e6
100000.00000003398
99999.99999990754
100000.00000025088
99999.99999931763
100000.0000018534
99999.99999495999
100000.00001370463
99999.9999627155
100000.00010146879
99999.99972373414
100000.00075251379
99999.99794924319
100000.00559166324
99999.98474497102
100000.04164360205
99999.88624607476
100000.31094688065
99999.14940786615
100002.32802634973
99993.63657285052
100017.0553431092
99962.66459298963
99865.39706045452
107443.24423786766
203741.4251787246
461567.8578877183
771230.0147687882
961674.3236023278
1.0251422246638715e6
1.0445629182368208e6
1.0564858315719254e6
1.0671356198602242e6
1.0771922812269172e6
1.0867327529503496e6
1.095779288436617e6
1.104343362361419e6
1.112428199420229e6
1.1200294002718015e6
1.127133302536186e6
1.133721081733147e6
1.1397556226923224e6
1.1452205923954186e6
1.1500026594140008e6
1.1542616551290816e6
1.1572700580757642e6
1.1612012187199777e6
1.158469667922629e6
1.1755726162072234e6
100000.00000002712
99999.99999992612
100000.00000019956
99999.9999994591
100000.00000146402
99999.99999603452
100000.00001074024
99999.99997089946
100000.00007886461
99999.99978619596
100000.00057983081
99999.99842687856
100000.00426989242
99999.98840452195
100000.03150661272
99999.91433889791
100000.233057312
99999.36545343795
100001.7286576386
99995.29692612952
100012.53628175856
99972.92267869129
99895.97584880286
105064.98433848367
188080.10384930216
432060.2373127741
743804.5804371696
947418.6568615173
1.018783502909439e6
1.0398947016817813e6
1.0518249844197663e6
1.0622237242122297e6
1.07198562643666e6
1.0812110055952198e6
1.0899251870684456e6
1.0981416017090436e6
1.1058658362438856e6
1.1130962732434324e6
1.1198226353845072e6
1.1260296341006716e6
1.131685235815263e6
1.1367760470991528e6
1.1412003015745555e6
1.145110954592158e6
1.1478251648431183e6
1.1514755291704766e6
1.1484539493892917e6
1.1665035788458332e6
100000.00000002052
99999.99999994476
100000.00000014824
99999.99999960116
100000.00000107176
99999.99999711996
100000.00000773865
99999.99997920911
100000.00005584722
99999.99985000366
100000.0004028133
99999.9989183531
100000.00290424604
99999.9922023844
100000.02093567226
99999.9437879348
100000.15094306009
99999.59462344964
100001.08861681761
99997.08312446922
100007.6294653621
99984.38887520916
99923.3337643705
103098.41769858214
172279.10824741604
399744.0314519477
711864.7218896765
929988.1038568723
1.0111310514986181e6
1.0345773534137058e6
1.0465972907540494e6
1.0567155896578445e6
1.0661337869428762e6
1.0749875229521398e6
1.0833055106626824e6
1.0911021060213982e6
1.0983840635117646e6
1.105151353403978e6
1.1113959904677263e6
1.1171054449724434e6
1.122252494674865e6
1.126827612958804e6
1.1307426015274138e6
1.1341492163659749e6
1.1364152200729132e6
1.139650913713938e6
1.1361995442730577e6
1.1554171708853652e6
100000.00000001416
99999.9999999624
100000.00000009991
99999.99999973482
100000.0000007027
99999.999998141
100000.00000491332
99999.9999870343
100000.00003415719
99999.99991018059
100000.00023570206
99999.99938288583
100000.00161159897
99999.99580334923
100000.01089285867
99999.97183015435
100000.07254390747
99999.81409097307
100000.47354079406
99998.8066627284
100002.86630413323
99995.80521005584
99942.9614249946
101619.68085559574
156964.9449269083
365201.2994812955
675250.347897962
908823.0982858612
1.0019027681910851e6
1.0285544095713045e6
1.0408029027566744e6
1.050619398291989e6
1.0596435781496956e6
1.0680652044298083e6
1.0759172516928185e6
1.083213465934119e6
1.0899597200973763e6
1.0961551718028116e6
1.1017913472440068e6
1.1068553121098527e6
1.1113209593379758e6
1.1151786379478727e6
1.1183489136897768e6
1.1209797009726525e6
1.122486983206356e6
1.124980514068536e6
1.1207418711537775e6
1.1413036029351703e6
100000.00000000875
99999.99999997772
100000.00000005776
99999.99999985134
100000.00000038133
99999.9999990268
100000.000002468
99999.99999379014
100000.0000154769
99999.99996188203
100000.0000924652
99999.99978013853
100000.00050861241
99999.99886953767
100000.0023581639
99999.99561911776
100000.00613904884
99999.9997421695
99999.95374168352
100000.26246197899
99998.83842373316
100005.6239158136
99953.87355371185
100634.68780366023
142761.44208051948
329180.6131259546
633931.0969991192
883296.2585952586
990722.4286424657
1.0217419787188858e6
1.0344415238905501e6
1.0439491263754261e6
1.0525293148022662e6
1.0604554795255435e6
1.0677669188510096e6
1.0744747730172488e6
1.080581102280712e6
1.08608068945809e6
1.0909604328527825e6
1.0952025304553981e6
1.0987777439334716e6
1.101673636645859e6
1.1038194789544952e6
1.105369272724864e6
1.1058023345514885e6
1.1072688112405401e6
1.1019573193331163e6
1.124286100653929e6
100000.00000000412
99999.99999999034
100000.00000002379
99999.99999994415
100000.00000012736
99999.99999972303
100000.00000055913
99999.99999902722
100000.00000110167
100000.00000136554
99999.99998394337
100000.00007865096
99999.99968678069
100000.00113427607
99999.99611059064
100000.01287400673
99999.95842187939
100000.13188832943
99999.58726433838
100001.27908202306
99996.05064258704
100012.40768289458
99958.73194565956
100082.18010883014
130236.4225463095
292601.1288452664
588069.4121373293
852739.2405523605
977095.167540047
1.0140134472776323e6
1.0275087127821561e6
1.0367244264673613e6
1.0448137999027745e6
1.052179982745938e6
1.0588729062327277e6
1.0648986319265747e6
1.0702511444263493e6
1.0749150053046367e6
1.0788644107685196e6
1.082065274292791e6
1.0844684625578816e6
1.0860330306137737e6
1.0866602426087402e6
1.0864514352650866e6
1.0848661557233399e6
1.0840551865039465e6
1.0760713648124933e6
1.0995943066771275e6
100000.00000000089
99999.99999999943
99999.99999999955
100000.00000001001
99999.99999994978
100000.00000020266
99999.99999926418
100000.00000252189
99999.999991674
100000.00002678043
99999.99991547718
100000.00026295318
99999.99919107418
100000.0024663559
99999.99253444027
100000.02246469581
99999.9327297866
100000.20063065556
99999.40360597747
100001.76817922245
99994.77062531457
100015.29379351727
99962.13327498965
99852.10997127704
119834.80489799698
256536.3479793771
538088.1730635514
816492.2927537293
960384.2963878947
1.0051784028316138e6
1.019990038356996e6
1.0289700249241536e6
1.0365293206062648e6
1.04327256380191e6
1.049268873363997e6
1.0545168576359078e6
1.0589974297263816e6
1.0626780829574775e6
1.0655113837648334e6
1.067435934440205e6
1.0683719403077895e6
1.068242102377587e6
1.0669173520270712e6
1.0644892309222824e6
1.0604804888423868e6
1.0571673844271463e6
1.0465626728380859e6
1.0729152244352356e6
99999.99999999868
100000.00000000511
99999.99999998497
100000.00000004875
99999.99999984796
100000.00000046907
99999.9999985709
100000.0000043153
99999.99998706409
100000.00003853672
99999.99988579302
100000.00033697231
99999.99900947654
100000.00290227773
99999.9915195757
100000.0247213991
99999.9280788465
100000.20888305426
99999.39419737001
100001.7546891074
99994.93101067256
100014.34565690497
99968.07903168698
99816.35061119824
111808.19306643901
222170.45962982223
484733.8665037327
773981.8068959437
939794.9086887315
994954.0761096308
1.0118516688163418e6
1.0207139199634889e6
1.027717967089697e6
1.033780448834742e6
1.0390055675267108e6
1.0433827113260817e6
1.046873544824646e6
1.0494186796833777e6
1.0509332304395018e6
1.0513028010670547e6
1.050367049344739e6
1.047928369290246e6
1.04366109269438e6
1.0373123935958033e6
1.027855315638753e6
1.016683536203959e6
994375.0856299228
1.0123314702213183e6
99999.99999999753
100000.00000000732
99999.99999997836
100000.00000006435
99999.99999981064
100000.00000055449
99999.9999983843
100000.00000468895
99999.99998643839
100000.00003909932
99999.99988759063
100000.00032234217
99999.99907783649
100000.0026324144
99999.99250063392
100000.02132439041
99999.93947146864
100000.1715207801
99999.5147393818
100001.37046746741
99996.1444597785
100010.5684610363
99977.9255160443
99862.46327882003
106160.91907879045
190721.02759311115
429122.30586000223
724828.3705456953
914373.105170837
982928.0873124793
1.0030255702300863e6
1.0119837276851635e6
1.0184312162982592e6
1.0237651121357396e6
1.0281532388245313e6
1.0315765348306949e6
1.0339722334834929e6
1.0352458794593569e6
1.0352630675894581e6
1.0338413006502179e6
1.0307289036662767e6
1.0256042426834033e6
1.0179991027345812e6
1.0075305749192537e6
993203.8031236558
976735.0900327194
949017.5786543546
972057.6166135173
99999.99999999734
100000.00000000781
99999.99999997795
100000.0000000631
99999.99999982011
100000.00000051067
99999.99999855374
100000.00000408337
99999.99998850455
100000.00003226461
99999.99990970454
100000.00025194451
99999.99929916704
100000.00194327417
99999.99462988482
100000.01478610456
99999.95944890582
100000.11072491371
99999.69916030548
100000.81251504528
99997.82676429978
100005.59057238967
99989.911943248
99917.49910081255
102638.31594005122
163323.1948634192
372750.9451757012
668982.9587730024
883034.3090919714
968513.2267194965
993386.9982958667
1.002800045868206e6
1.0087279623946968e6
1.0133013316652467e6
1.0168006575404372e6
1.0192037216390849e6
1.0204194026944105e6
1.0203089482636094e6
1.0186729322911289e6
1.015230169880775e6
1.0095643878907862e6
1.0010623281032649e6
988693.156511032
970878.1149104314
943930.3237346804
902959.1046479624
824492.3727588318
696296.1235761506
99999.99999999767
100000.00000000655
99999.99999998159
100000.00000005157
99999.99999985703
100000.00000039517
99999.99999891174
100000.00000298438
99999.99999185056
100000.00002214365
99999.99994015046
100000.00016077969
99999.99957108412
100000.00113490313
99999.99702634258
100000.0076984735
99999.98036928503
100000.04907656106
99999.88058053545
100000.2792909541
99999.38995617258
100001.09426273819
100000.62795366312
99952.4725988172
100777.09510346109
140874.68917052707
317459.7646919339
606880.3131715889
844638.6062894075
950899.2902936267
982721.8970379354
993165.6535229618
998670.8446033343
1.0024751884701877e6
1.0050536999163341e6
1.0063949501374178e6
1.0063801657551908e6
1.004823570638566e6
1.0014611640097137e6
995909.6892069797
987596.124486767
975656.4156901576
958656.9602730351
934376.6071441631
898278.2344067427
844439.8449589873
753441.0316234177
617202.3060502231
99999.99999999798
100000.00000000483
99999.99999998666
100000.00000003596
99999.99999990292
100000.00000025926
99999.99999931155
100000.00000181248
99999.999995273
100000.00001218519
99999.9999690324
100000.00007726914
99999.99981185791
100000.00044261807
99999.99901153968
100000.00202063021
99999.99656592496
100000.00299677023
100000.01131719082
99999.90951664498
100000.43048639732
99998.23182155094
100007.15939044015
99968.7643340632
100016.49557004948
123856.71939524
265323.19862412964
539584.8860127758
798131.2861732896
929013.5065941672
970681.9059684535
983048.69334159
988319.9807834812
991379.8391035865
993030.1360222277
993298.3313780463
992043.3404373331
989042.7114695316
983975.8178697167
976382.9667935411
965586.508688548
950586.9566851379
929803.6402180069
900916.5882527196
859693.5201166668
801210.4804143433
712431.0563690049
591875.066143373
99999.99999999891
100000.00000000304
99999.99999999185
100000.00000002164
99999.9999999448
100000.00000013948
99999.999999652
100000.00000084778
99999.99999799299
100000.00000454683
99999.99999038519
100000.0000178634
99999.99997625932
99999.99999032912
100000.00024747531
99999.99866977432
100000.00556571693
99999.97910167793
100000.07384466963
99999.74901963271
100000.83068621228
99997.29901614299
100008.61968854506
99977.82052313234
99837.30097433426
112181.07290353341
218461.90559326275
468888.75472202955
742757.4629669674
901508.6684900114
956725.0973601106
972357.0995903824
977723.2493244443
980109.2474902137
980852.1733899898
980066.5807624083
977605.2385410406
973219.9757328694
966554.4238847089
957106.4042962206
944156.6885213635
926682.5630722725
903154.0270143971
871467.9033464117
828157.5764818267
769675.5029368642
688046.3573059746
584852.5991537357
99999.99999999935
100000.0000000015
99999.99999999558
100000.00000001024
99999.999999976
100000.00000005364
99999.9999998868
100000.00000021057
99999.99999971
99999.99999996346
100000.0000024871
99999.99998634293
100000.00005694214
99999.99978850038
100000.00073643509
99999.99754052715
100000.00797470358
99999.97471465438
100000.07875311069
99999.75834210806
100000.73201942892
99997.81109499556
100006.32495140609
99987.06094447336
99871.11343634524
105149.75028275714
178775.4478727514
397313.3010289981
678341.3645610567
866807.4408279082
940043.1557671063
960900.41379964
966901.7985902354
968750.4852463591
968638.7782990318
966847.2967231584
963249.4947167756
957585.6882564956
949485.7829879019
938439.3781215965
923739.4922139129
904421.2950431877
879120.7201838546
846082.5070482683
802677.9406937255
746543.345708401
673111.4698752903
584757.1095339376
99999.99999999967
100000.0000000004
99999.99999999831
100000.00000000304
99999.99999999494
100000.00000000438
100000.00000001387
99999.99999988906
100000.0000005048
99999.99999806192
100000.00000682368
99999.99997720408
100000.00007342211
99999.99976991744
100000.00070522339
99999.99787896586
100000.0062708808
99999.98176099338
100000.05217979272
99999.85332534493
100000.40409081247
99998.91659165056
100002.70157952815
99996.5510682752
99931.45113446956
101599.47256324113
147610.40189110214
327972.4988237159
605596.0730537476
823242.7676332346
919484.6166955921
948334.9534167747
955828.6412482325
957374.1914224491
956497.5815308341
953775.0522275339
949136.797526692
942331.2111448295
932993.9152066736
920634.009689209