# vtk DataFile Version 2.0
JuliaCFD
ASCII
DATASET UNSTRUCTURED_GRID

POINTS 32898 float
0.0 0.0 -0.05
0.0125 0.0 -0.05
0.025 0.0 -0.05
0.0375 0.0 -0.05
0.05 0.0 -0.05
0.0625 0.0 -0.05
0.075 0.0 -0.05
0.0875 0.0 -0.05
0.1 0.0 -0.05
0.1125 0.0 -0.05
0.125 0.0 -0.05
0.1375 0.0 -0.05
0.15 0.0 -0.05
0.1625 0.0 -0.05
0.175 0.0 -0.05
0.1875 0.0 -0.05
0.2 0.0 -0.05
0.2125 0.0 -0.05
0.225 0.0 -0.05
0.2375 0.0 -0.05
0.25 0.0 -0.05
0.2625 0.0 -0.05
0.275 0.0 -0.05
0.2875 0.0 -0.05
0.3 0.0 -0.05
0.3125 0.0 -0.05
0.325 0.0 -0.05
0.3375 0.0 -0.05
0.35 0.0 -0.05
0.3625 0.0 -0.05
0.375 0.0 -0.05
0.3875 0.0 -0.05
0.4 0.0 -0.05
0.4125 0.0 -0.05
0.425 0.0 -0.05
0.4375 0.0 -0.05
0.45 0.0 -0.05
0.4625 0.0 -0.05
0.475 0.0 -0.05
0.4875 0.0 -0.05
0.5 0.0 -0.05
0.5125 0.0 -0.05
0.525 0.0 -0.05
0.5375 0.0 -0.05
0.55 0.0 -0.05
0.5625 0.0 -0.05
0.575 0.0 -0.05
0.5875 0.0 -0.05
0.6 0.0 -0.05
0.0 0.0125 -0.05
0.0125 0.0125 -0.05
0.025 0.0125 -0.05
0.0375 0.0125 -0.05
0.05 0.0125 -0.05
0.0625 0.0125 -0.05
0.075 0.0125 -0.05
0.0875 0.0125 -0.05
0.1 0.0125 -0.05
0.1125 0.0125 -0.05
0.125 0.0125 -0.05
0.1375 0.0125 -0.05
0.15 0.0125 -0.05
0.1625 0.0125 -0.05
0.175 0.0125 -0.05
0.1875 0.0125 -0.05
0.2 0.0125 -0.05
0.2125 0.0125 -0.05
0.225 0.0125 -0.05
0.2375 0.0125 -0.05
0.25 0.0125 -0.05
0.2625 0.0125 -0.05
0.275 0.0125 -0.05
0.2875 0.0125 -0.05
0.3 0.0125 -0.05
0.3125 0.0125 -0.05
0.325 0.0125 -0.05
0.3375 0.0125 -0.05
0.35 0.0125 -0.05
0.3625 0.0125 -0.05
0.375 0.0125 -0.05
0.3875 0.0125 -0.05
0.4 0.0125 -0.05
0.4125 0.0125 -0.05
0.425 0.0125 -0.05
0.4375 0.0125 -0.05
0.45 0.0125 -0.05
0.4625 0.0125 -0.05
0.475 0.0125 -0.05
0.4875 0.0125 -0.05
0.5 0.0125 -0.05
0.5125 0.0125 -0.05
0.525 0.0125 -0.05
0.5375 0.0125 -0.05
0.55 0.0125 -0.05
0.5625 0.0125 -0.05
0.575 0.0125 -0.05
0.5875 0.0125 -0.05
0.6 0.0125 -0.05
0.0 0.025 -0.05
0.0125 0.025 -0.05
0.025 0.025 -0.05
0.0375 0.025 -0.05
0.05 0.025 -0.05
0.0625 0.025 -0.05
0.075 0.025 -0.05
0.0875 0.025 -0.05
0.1 0.025 -0.05
0.1125 0.025 -0.05
0.125 0.025 -0.05
0.1375 0.025 -0.05
0.15 0.025 -0.05
0.1625 0.025 -0.05
0.175 0.025 -0.05
0.1875 0.025 -0.05
0.2 0.025 -0.05
0.2125 0.025 -0.05
0.225 0.025 -0.05
0.2375 0.025 -0.05
0.25 0.025 -0.05
0.2625 0.025 -0.05
0.275 0.025 -0.05
0.2875 0.025 -0.05
0.3 0.025 -0.05
0.3125 0.025 -0.05
0.325 0.025 -0.05
0.3375 0.025 -0.05
0.35 0.025 -0.05
0.3625 0.025 -0.05
0.375 0.025 -0.05
0.3875 0.025 -0.05
0.4 0.025 -0.05
0.4125 0.025 -0.05
0.425 0.025 -0.05
0.4375 0.025 -0.05
0.45 0.025 -0.05
0.4625 0.025 -0.05
0.475 0.025 -0.05
0.4875 0.025 -0.05
0.5 0.025 -0.05
0.5125 0.025 -0.05
0.525 0.025 -0.05
0.5375 0.025 -0.05
0.55 0.025 -0.05
0.5625 0.025 -0.05
0.575 0.025 -0.05
0.5875 0.025 -0.05
0.6 0.025 -0.05
0.0 0.0375 -0.05
0.0125 0.0375 -0.05
0.025 0.0375 -0.05
0.0375 0.0375 -0.05
0.05 0.0375 -0.05
0.0625 0.0375 -0.05
0.075 0.0375 -0.05
0.0875 0.0375 -0.05
0.1 0.0375 -0.05
0.1125 0.0375 -0.05
0.125 0.0375 -0.05
0.1375 0.0375 -0.05
0.15 0.0375 -0.05
0.1625 0.0375 -0.05
0.175 0.0375 -0.05
0.1875 0.0375 -0.05
0.2 0.0375 -0.05
0.2125 0.0375 -0.05
0.225 0.0375 -0.05
0.2375 0.0375 -0.05
0.25 0.0375 -0.05
0.2625 0.0375 -0.05
0.275 0.0375 -0.05
0.2875 0.0375 -0.05
0.3 0.0375 -0.05
0.3125 0.0375 -0.05
0.325 0.0375 -0.05
0.3375 0.0375 -0.05
0.35 0.0375 -0.05
0.3625 0.0375 -0.05
0.375 0.0375 -0.05
0.3875 0.0375 -0.05
0.4 0.0375 -0.05
0.4125 0.0375 -0.05
0.425 0.0375 -0.05
0.4375 0.0375 -0.05
0.45 0.0375 -0.05
0.4625 0.0375 -0.05
0.475 0.0375 -0.05
0.4875 0.0375 -0.05
0.5 0.0375 -0.05
0.5125 0.0375 -0.05
0.525 0.0375 -0.05
0.5375 0.0375 -0.05
0.55 0.0375 -0.05
0.5625 0.0375 -0.05
0.575 0.0375 -0.05
0.5875 0.0375 -0.05
0.6 0.0375 -0.05
0.0 0.05 -0.05
0.0125 0.05 -0.05
0.025 0.05 -0.05
0.0375 0.05 -0.05
0.05 0.05 -0.05
0.0625 0.05 -0.05
0.075 0.05 -0.05
0.0875 0.05 -0.05
0.1 0.05 -0.05
0.1125 0.05 -0.05
0.125 0.05 -0.05
0.1375 0.05 -0.05
0.15 0.05 -0.05
0.1625 0.05 -0.05
0.175 0.05 -0.05
0.1875 0.05 -0.05
0.2 0.05 -0.05
0.2125 0.05 -0.05
0.225 0.05 -0.05
0.2375 0.05 -0.05
0.25 0.05 -0.05
0.2625 0.05 -0.05
0.275 0.05 -0.05
0.2875 0.05 -0.05
0.3 0.05 -0.05
0.3125 0.05 -0.05
0.325 0.05 -0.05
0.3375 0.05 -0.05
0.35 0.05 -0.05
0.3625 0.05 -0.05
0.375 0.05 -0.05
0.3875 0.05 -0.05
0.4 0.05 -0.05
0.4125 0.05 -0.05
0.425 0.05 -0.05
0.4375 0.05 -0.05
0.45 0.05 -0.05
0.4625 0.05 -0.05
0.475 0.05 -0.05
0.4875 0.05 -0.05
0.5 0.05 -0.05
0.5125 0.05 -0.05
0.525 0.05 -0.05
0.5375 0.05 -0.05
0.55 0.05 -0.05
0.5625 0.05 -0.05
0.575 0.05 -0.05
0.5875 0.05 -0.05
0.6 0.05 -0.05
0.0 0.0625 -0.05
0.0125 0.0625 -0.05
0.025 0.0625 -0.05
0.0375 0.0625 -0.05
0.05 0.0625 -0.05
0.0625 0.0625 -0.05
0.075 0.0625 -0.05
0.0875 0.0625 -0.05
0.1 0.0625 -0.05
0.1125 0.0625 -0.05
0.125 0.0625 -0.05
0.1375 0.0625 -0.05
0.15 0.0625 -0.05
0.1625 0.0625 -0.05
0.175 0.0625 -0.05
0.1875 0.0625 -0.05
0.2 0.0625 -0.05
0.2125 0.0625 -0.05
0.225 0.0625 -0.05
0.2375 0.0625 -0.05
0.25 0.0625 -0.05
0.2625 0.0625 -0.05
0.275 0.0625 -0.05
0.2875 0.0625 -0.05
0.3 0.0625 -0.05
0.3125 0.0625 -0.05
0.325 0.0625 -0.05
0.3375 0.0625 -0.05
0.35 0.0625 -0.05
0.3625 0.0625 -0.05
0.375 0.0625 -0.05
0.3875 0.0625 -0.05
0.4 0.0625 -0.05
0.4125 0.0625 -0.05
0.425 0.0625 -0.05
0.4375 0.0625 -0.05
0.45 0.0625 -0.05
0.4625 0.0625 -0.05
0.475 0.0625 -0.05
0.4875 0.0625 -0.05
0.5 0.0625 -0.05
0.5125 0.0625 -0.05
0.525 0.0625 -0.05
0.5375 0.0625 -0.05
0.55 0.0625 -0.05
0.5625 0.0625 -0.05
0.575 0.0625 -0.05
0.5875 0.0625 -0.05
0.6 0.0625 -0.05
0.0 0.075 -0.05
0.0125 0.075 -0.05
0.025 0.075 -0.05
0.0375 0.075 -0.05
0.05 0.075 -0.05
0.0625 0.075 -0.05
0.075 0.075 -0.05
0.0875 0.075 -0.05
0.1 0.075 -0.05
0.1125 0.075 -0.05
0.125 0.075 -0.05
0.1375 0.075 -0.05
0.15 0.075 -0.05
0.1625 0.075 -0.05
0.175 0.075 -0.05
0.1875 0.075 -0.05
0.2 0.075 -0.05
0.2125 0.075 -0.05
0.225 0.075 -0.05
0.2375 0.075 -0.05
0.25 0.075 -0.05
0.2625 0.075 -0.05
0.275 0.075 -0.05
0.2875 0.075 -0.05
0.3 0.075 -0.05
0.3125 0.075 -0.05
0.325 0.075 -0.05
0.3375 0.075 -0.05
0.35 0.075 -0.05
0.3625 0.075 -0.05
0.375 0.075 -0.05
0.3875 0.075 -0.05
0.4 0.075 -0.05
0.4125 0.075 -0.05
0.425 0.075 -0.05
0.4375 0.075 -0.05
0.45 0.075 -0.05
0.4625 0.075 -0.05
0.475 0.075 -0.05
0.4875 0.075 -0.05
0.5 0.075 -0.05
0.5125 0.075 -0.05
0.525 0.075 -0.05
0.5375 0.075 -0.05
0.55 0.075 -0.05
0.5625 0.075 -0.05
0.575 0.075 -0.05
0.5875 0.075 -0.05
0.6 0.075 -0.05
0.0 0.0875 -0.05
0.0125 0.0875 -0.05
0.025 0.0875 -0.05
0.0375 0.0875 -0.05
0.05 0.0875 -0.05
0.0625 0.0875 -0.05
0.075 0.0875 -0.05
0.0875 0.0875 -0.05
0.1 0.0875 -0.05
0.1125 0.0875 -0.05
0.125 0.0875 -0.05
0.1375 0.0875 -0.05
0.15 0.0875 -0.05
0.1625 0.0875 -0.05
0.175 0.0875 -0.05
0.1875 0.0875 -0.05
0.2 0.0875 -0.05
0.2125 0.0875 -0.05
0.225 0.0875 -0.05
0.2375 0.0875 -0.05
0.25 0.0875 -0.05
0.2625 0.0875 -0.05
0.275 0.0875 -0.05
0.2875 0.0875 -0.05
0.3 0.0875 -0.05
0.3125 0.0875 -0.05
0.325 0.0875 -0.05
0.3375 0.0875 -0.05
0.35 0.0875 -0.05
0.3625 0.0875 -0.05
0.375 0.0875 -0.05
0.3875 0.0875 -0.05
0.4 0.0875 -0.05
0.4125 0.0875 -0.05
0.425 0.0875 -0.05
0.4375 0.0875 -0.05
0.45 0.0875 -0.05
0.4625 0.0875 -0.05
0.475 0.0875 -0.05
0.4875 0.0875 -0.05
0.5 0.0875 -0.05
0.5125 0.0875 -0.05
0.525 0.0875 -0.05
0.5375 0.0875 -0.05
0.55 0.0875 -0.05
0.5625 0.0875 -0.05
0.575 0.0875 -0.05
0.5875 0.0875 -0.05
0.6 0.0875 -0.05
0.0 0.1 -0.05
0.0125 0.1 -0.05
0.025 0.1 -0.05
0.0375 0.1 -0.05
0.05 0.1 -0.05
0.0625 0.1 -0.05
0.075 0.1 -0.05
0.0875 0.1 -0.05
0.1 0.1 -0.05
0.1125 0.1 -0.05
0.125 0.1 -0.05
0.1375 0.1 -0.05
0.15 0.1 -0.05
0.1625 0.1 -0.05
0.175 0.1 -0.05
0.1875 0.1 -0.05
0.2 0.1 -0.05
0.2125 0.1 -0.05
0.225 0.1 -0.05
0.2375 0.1 -0.05
0.25 0.1 -0.05
0.2625 0.1 -0.05
0.275 0.1 -0.05
0.2875 0.1 -0.05
0.3 0.1 -0.05
0.3125 0.1 -0.05
0.325 0.1 -0.05
0.3375 0.1 -0.05
0.35 0.1 -0.05
0.3625 0.1 -0.05
0.375 0.1 -0.05
0.3875 0.1 -0.05
0.4 0.1 -0.05
0.4125 0.1 -0.05
0.425 0.1 -0.05
0.4375 0.1 -0.05
0.45 0.1 -0.05
0.4625 0.1 -0.05
0.475 0.1 -0.05
0.4875 0.1 -0.05
0.5 0.1 -0.05
0.5125 0.1 -0.05
0.525 0.1 -0.05
0.5375 0.1 -0.05
0.55 0.1 -0.05
0.5625 0.1 -0.05
0.575 0.1 -0.05
0.5875 0.1 -0.05
0.6 0.1 -0.05
0.0 0.1125 -0.05
0.0125 0.1125 -0.05
0.025 0.1125 -0.05
0.0375 0.1125 -0.05
0.05 0.1125 -0.05
0.0625 0.1125 -0.05
0.075 0.1125 -0.05
0.0875 0.1125 -0.05
0.1 0.1125 -0.05
0.1125 0.1125 -0.05
0.125 0.1125 -0.05
0.1375 0.1125 -0.05
0.15 0.1125 -0.05
0.1625 0.1125 -0.05
0.175 0.1125 -0.05
0.1875 0.1125 -0.05
0.2 0.1125 -0.05
0.2125 0.1125 -0.05
0.225 0.1125 -0.05
0.2375 0.1125 -0.05
0.25 0.1125 -0.05
0.2625 0.1125 -0.05
0.275 0.1125 -0.05
0.2875 0.1125 -0.05
0.3 0.1125 -0.05
0.3125 0.1125 -0.05
0.325 0.1125 -0.05
0.3375 0.1125 -0.05
0.35 0.1125 -0.05
0.3625 0.1125 -0.05
0.375 0.1125 -0.05
0.3875 0.1125 -0.05
0.4 0.1125 -0.05
0.4125 0.1125 -0.05
0.425 0.1125 -0.05
0.4375 0.1125 -0.05
0.45 0.1125 -0.05
0.4625 0.1125 -0.05
0.475 0.1125 -0.05
0.4875 0.1125 -0.05
0.5 0.1125 -0.05
0.5125 0.1125 -0.05
0.525 0.1125 -0.05
0.5375 0.1125 -0.05
0.55 0.1125 -0.05
0.5625 0.1125 -0.05
0.575 0.1125 -0.05
0.5875 0.1125 -0.05
0.6 0.1125 -0.05
0.0 0.125 -0.05
0.0125 0.125 -0.05
0.025 0.125 -0.05
0.0375 0.125 -0.05
0.05 0.125 -0.05
0.0625 0.125 -0.05
0.075 0.125 -0.05
0.0875 0.125 -0.05
0.1 0.125 -0.05
0.1125 0.125 -0.05
0.125 0.125 -0.05
0.1375 0.125 -0.05
0.15 0.125 -0.05
0.1625 0.125 -0.05
0.175 0.125 -0.05
0.1875 0.125 -0.05
0.2 0.125 -0.05
0.2125 0.125 -0.05
0.225 0.125 -0.05
0.2375 0.125 -0.05
0.25 0.125 -0.05
0.2625 0.125 -0.05
0.275 0.125 -0.05
0.2875 0.125 -0.05
0.3 0.125 -0.05
0.3125 0.125 -0.05
0.325 0.125 -0.05
0.3375 0.125 -0.05
0.35 0.125 -0.05
0.3625 0.125 -0.05
0.375 0.125 -0.05
0.3875 0.125 -0.05
0.4 0.125 -0.05
0.4125 0.125 -0.05
0.425 0.125 -0.05
0.4375 0.125 -0.05
0.45 0.125 -0.05
0.4625 0.125 -0.05
0.475 0.125 -0.05
0.4875 0.125 -0.05
0.5 0.125 -0.05
0.5125 0.125 -0.05
0.525 0.125 -0.05
0.5375 0.125 -0.05
0.55 0.125 -0.05
0.5625 0.125 -0.05
0.575 0.125 -0.05
0.5875 0.125 -0.05
0.6 0.125 -0.05
0.0 0.1375 -0.05
0.0125 0.1375 -0.05
0.025 0.1375 -0.05
0.0375 0.1375 -0.05
0.05 0.1375 -0.05
0.0625 0.1375 -0.05
0.075 0.1375 -0.05
0.0875 0.1375 -0.05
[...]
CELL_DATA 16128
SCALARS P float 1
LOOKUP_TABLE default
100000.00000000071
99999.99999999815
100000.00000000354
99999.99999999184
100000.00000001524
99999.99999997516
100000.00000001666
100000.00000009648
99999.99999933259
100000.00000295085
99999.99998879078
100000.0000393426
99999.9998684717
100000.000425256
99999.99865846342
100000.00415226423
99999.9873435284
100000.03809026584
99999.88660182683
100000.33442014814
99999.0220308093
100002.83774170297
99991.83468600841
100022.99772167695
99944.61031833803
99879.5269149706
110503.83931427904
228671.77000075602
521323.9323008688
850877.6558735791
1.0346002587386732e6
1.0853326776706325e6
1.100495266064359e6
1.1123082295252532e6
1.1235405389286533e6
1.1341978105756866e6
1.1442439389120808e6
1.1536583548933396e6
1.1624216871476904e6
1.1705175340622652e6
1.1779080491426126e6
1.1845961706404616e6
1.1904385616945964e6
1.195694270537215e6
1.1994115760829388e6
1.2041878166486719e6
1.2021366640022935e6
1.2163103248698274e6
100000.00000000064
99999.99999999818
100000.00000000384
99999.99999999163
100000.00000001659
99999.99999997104
100000.00000002919
100000.00000005832
99999.99999944738
100000.0000026096
99999.99998979656
100000.000036408
99999.99987695394
100000.00040096538
99999.99872737766
100000.00395862339
99999.98788216579
100000.03660816257
99999.89063122858
100000.32361620905
99999.05051062231
100002.76437748934
99992.01686010114
100022.58325899747
99945.15516849648
99885.93378808422
110137.11308863481
227098.61903110766
520179.1850133356
853510.8905755064
1.0415525192987463e6
1.0944654285089155e6
1.1105125418596764e6
1.1227947220608634e6
1.134323253109979e6
1.1452020833983554e6
1.1554423968049884e6
1.1650436590865254e6
1.1739921323526606e6
1.1822694220140912e6
1.189831675136142e6
1.196673115535178e6
1.2026412595239938e6
1.2079841010310957e6
1.2117424367792825e6
1.216516181468518e6
1.2143562933153103e6
1.2287276054791862e6
100000.00000000074
99999.99999999796
100000.00000000377
99999.9999999907
100000.00000001951
99999.9999999624
100000.00000005655
99999.99999997405
99999.99999970317
100000.00000184117
99999.99999207874
100000.0000296936
99999.99989653232
100000.000344359
99999.9988897036
100000.0034968647
99999.98918517698
100000.03296120482
99999.90075271398
100000.29577389568
99999.1263811293
100002.5597318293
99992.56223612693
100021.16872484965
99948.20492224925
99893.6086731687
109295.9082993419
222385.1640959514
511707.99026810104
845268.1613672925
1.036093080733176e6
1.090369479895337e6
1.1064556290404338e6
1.118561765916936e6
1.1299040852209216e6
1.1405928440308091e6
1.1506361767874307e6
1.1600332691210972e6
1.168772434026485e6
1.176838660171964e6
1.1841933091494124e6
1.1908349543194748e6
1.1966216170552862e6
1.20179818166416e6
1.2054382742795502e6
1.210090490847784e6
1.2078751281014036e6
1.2224543124524856e6
100000.00000000063
99999.99999999798
100000.00000000423
99999.9999999896
100000.00000002295
99999.99999995068
100000.00000009374
99999.99999985886
100000.00000005652
100000.00000077259
99999.99999527619
100000.00002021962
99999.99992435466
100000.0002633282
99999.99912385485
100000.00282535059
99999.99109677617
100000.02755935381
99999.91590467255
100000.25359379743
99999.24288827146
100002.2405860117
99993.42781679559
100018.87813483631
99953.30664696943
99905.4155025981
108052.4874336253
215064.65316019848
498696.10337565525
833766.0658057826
1.0305510269956604e6
1.0880166953742376e6
1.1047038768513752e6
1.1169030873743156e6
1.1282725541993966e6
1.1389666388812414e6
1.1490063044099445e6
1.1583993356745746e6
1.167140162223473e6
1.1752177140069427e6
1.1825965855003945e6
1.1892746081283903e6
1.19511374934576e6
1.2003431776856624e6
1.2040598802865106e6
1.208745397265474e6
1.2065525131649715e6
1.2215151098812027e6
100000.0000000007
99999.99999999779
100000.00000000447
99999.99999998855
100000.00000002679
99999.99999993769
100000.00000013532
99999.99999972746
100000.00000046351
99999.9999995284
99999.99999903615
100000.00000897425
99999.99995768059
100000.0001653918
99999.99940943476
100000.00199870837
99999.993472759
100000.02077698486
99999.93513394055
100000.19944706974
99999.39429676175
100001.82032575649
99994.58397591976
100015.76928659655
99960.42043346034
99920.7504696757
106544.70297258522
205449.17920611077
481083.17144406965
817830.1385134123
1.0225974545664733e6
1.0843915064084923e6
1.101742303105866e6
1.1138816238522958e6
1.1251280421951604e6
1.1356872855039327e6
1.1455859496922765e6
1.154836032242888e6
1.1634359193553263e6
1.1713777658636305e6
1.1786300152191506e6
1.1851909988616537e6
1.1909303255734122e6
1.1960634738200463e6
1.199722455901443e6
1.2043211107380388e6
1.2020625264966043e6
1.2174453394411954e6
100000.00000000081
99999.9999999977
100000.0000000049
99999.99999998746
100000.00000003054
99999.99999992544
100000.00000017563
99999.99999959748
100000.0000008737
99999.99999825408
100000.00000294093
99999.99999714682
99999.9999931511
100000.00005995361
99999.99972036005
100000.0010885452
99999.99611877635
100000.01313469998
99999.95706745514
100000.13688677188
99999.57163565683
100001.32083747172
99995.98015404904
100011.94492635262
99969.47420133285
99937.29907574313
104936.36886816853
193963.15641834226
459084.50357397954
797297.511828049
1.0122054939503318e6
1.079895741954172e6
1.0982462627944434e6
1.1103361338180287e6
1.1214402790681627e6
1.1318451555543374e6
1.1415843537169804e6
1.150674827613621e6
1.1591199134248595e6
1.1669159383942098e6
1.1740360379063806e6
1.1804793363384418e6
1.1861234342439896e6
1.1911686895193418e6
1.1947826044404814e6
1.199310125470938e6
1.196984954217958e6
1.2129096889727782e6
100000.00000000067
99999.99999999763
100000.00000000511
99999.99999998648
100000.00000003273
99999.999999916
100000.00000020867
99999.9999994863
100000.00000123543
99999.99999710263
100000.00000654162
99999.99998604285
100000.00002699533
99999.99995782526
100000.00002586002
100000.00018176458
99999.99879142936
100000.00530800912
99999.97984961323
100000.0709501282
99999.761421938
100000.77758474086
99997.5252588589
100007.62699924798
99980.08479446638
99951.85555285362
103392.35754594888
181123.1438660992
432999.7488529991
771871.9480056484
998894.6442202429
1.0742620981887677e6
1.0940409214576285e6
1.1060766494563678e6
1.1169835477386394e6
1.1271744739750202e6
1.136691741503415e6
1.1455568425328138e6
1.1537780461981222e6
1.1613562136768706e6
1.1682699369509658e6
1.1745202943210406e6
1.179994730948058e6
1.184880854944501e6
1.1883852603292763e6
1.1927905855272026e6
1.190346230373127e6
1.2069246946266706e6
100000.00000000055
99999.99999999764
100000.00000000544
99999.99999998645
100000.00000003386
99999.99999991068
100000.00000022988
99999.99999940899
100000.00000150231
99999.99999621451
100000.000009418
99999.99997691592
100000.0000554982
99999.99986995413
100000.00029387166
99999.99937171195
100000.00122059234
99999.99807373341
100000.00126114557
100000.00793244378
99999.9459361833
100000.24000346976
99999.08286512301
100003.18196304579
99991.43129704392
99961.40654131514
102055.30870364355
167528.9296932672
403256.65396449645
741289.2937185251
982147.4127678211
1.067274935511832e6
1.089097808146288e6
1.1011147989191045e6
1.1117788509091062e6
1.1217009968949985e6
1.1309369879633877e6
1.139512789544145e6
1.1474417281298086e6
1.1547297264696278e6
1.161361782059594e6
1.167342508657498e6
1.1725711849928503e6
1.1772259784085741e6
1.1805548453711716e6
1.1847885236285168e6
1.1821675671792114e6
1.1995479429688388e6
100000.00000000047
99999.99999999808
100000.00000000454
99999.99999998722
100000.00000003305
99999.99999991087
100000.00000023573
99999.99999937581
100000.00000164197
99999.99999569236
100000.0000112473
99999.99997076581
100000.00007558582
99999.99980572223
100000.00049593106
99999.99874425831
100000.00314858997
99999.99220114858
100000.01901690172
99999.95458774344
100000.10531882223
99999.76616798763
100000.48423622831
99999.09216617735
100002.27492355953
99964.52047199338
101023.61672243314
153843.58192120187
370438.0418322263
705339.2827620526
961340.5212136699
1.0586264870448431e6
1.0833484750898941e6
1.0954267684879554e6
1.1058008445681925e6
1.11539034656398e6
1.1242735105170868e6
1.132480559866423e6
1.140029406372215e6
1.146930887748089e6
1.1531766253672324e6
1.1587758122755233e6
1.1636408648314201e6
1.1679448741021852e6
1.1709769878673472e6
1.1749351765689435e6
1.1720317187620997e6
1.1903819474974743e6
100000.00000000036
99999.99999999834
100000.00000000406
99999.99999998834
100000.00000003073
99999.99999991615
100000.0000002256
99999.99999939029
100000.00000164076
99999.99999558445
100000.00001186399
99999.99996815175
100000.00008540688
99999.99977116506
100000.00061260867
99999.99836131536
100000.00437981937
99999.98830368929
100000.03120558879
99999.9168359018
100000.22133535148
99999.41194467219
100001.55916731313
99995.87077991612
100011.15562428877
99962.35648353328
100335.56072143301
140758.4260062404
335310.5154480614
663925.3494765256
935757.1501662089
1.0479067790128919e6
1.0767044338407386e6
1.0889968404866424e6
1.0990378070356357e6
1.1082236566021694e6
1.116671720413727e6
1.1244163825361086e6
1.1314790579440943e6
1.137874727080161e6
1.14360141234645e6
1.1486739964993005e6
1.153020530590868e6
1.1568130223319856e6
1.1593921257458695e6
1.1629380157756705e6
1.1596154699628856e6
1.1791675170079826e6
100000.00000000033
99999.99999999844
100000.00000000346
99999.99999998987
100000.00000002667
99999.99999992613
100000.00000020125
99999.9999994485
100000.00000150818
99999.99999587216
100000.00001129559
99999.99996907068
100000.00008474333
99999.99976760217
100000.000638006
99999.99824625072
100000.00482761885
99999.986689704
100000.03676102948
99999.89828687921
100000.28195870949
99999.21689261401
100002.17893611731
99993.93291653815
100016.75712800187
99958.51377932353
99965.4614491454
128937.99726168676
298842.4629560836
617138.1181081608
904607.6253156677
1.0345676383149992e6
1.069035451861589e6
1.0818080236542262e6
1.0914833949157814e6
1.1001872825119854e6
1.108105556442466e6
1.1152768929107948e6
1.121723570281253e6
1.1274615553093234e6
1.1324915153914222e6
1.1368303021051348e6
1.1404154865513486e6
1.143415382090776e6
1.145226013394264e6
1.1480288351104928e6
1.1439267107218197e6
1.1648674301845727e6
100000.00000000023
99999.99999999873
100000.00000000282
99999.99999999184
100000.0000000216
99999.99999993955
100000.00000016653
99999.99999953894
100000.00000127371
99999.99999647547
100000.00000975799
99999.99997294763
100000.00007509705
99999.99979119253
100000.00058164162
99999.99837652566
100000.00454147633
99999.9872653488
100000.03579999918
99999.89908781163
100000.28524380446
99999.1914059064
100002.29847040566
99993.4588270706
100018.34783367324
99957.49559016651
99836.03491173866
118944.61281371096
262202.1979307772
565341.0693997514
867078.0024646248
1.0178887013785125e6
1.0601455613745349e6
1.0738387652726944e6
1.0831400245673838e6
1.0912789841409298e6
1.0985614477568e6
1.105032089213774e6
1.1107102972815132e6
1.1156086189074689e6
1.1197260161940556e6
1.1230792405856096e6
1.1256137903777359e6
1.1275062217462785e6
1.1282318318730895e6
1.1299991701764723e6
1.1248334649415084e6
1.1476007713659895e6
100000.00000000007
99999.99999999904
100000.00000000176
99999.99999999386
100000.00000001628
99999.99999995415
100000.00000012647
99999.99999964723
100000.00000098036
99999.99999726935
100000.00000760914
99999.99997876154
100000.00005936882
99999.99983373337
100000.00046659875
99999.99868758062
100000.00370065811
99999.98953719417
100000.02966601092
99999.91563052636
100000.24070886818
99999.31097995258
100001.97865993233
99994.30858368799
100016.12263038792
99962.52668950778
99845.72682212784
111151.17707600551
226725.68804877627
509259.1856176726
822413.6961498545
996947.6969357613
1.0497375947589697e6
1.065054270260163e6
1.0740192523254415e6
1.081510550010333e6
1.0880414064798807e6
1.0936670730858697e6
1.0983968273762132e6
1.1022281249957844e6
1.1051419028354492e6
1.1071245098285375e6
1.1080958013260108e6
1.1081874497607332e6
1.106866683986484e6
1.1063187797833537e6
1.0984567185752934e6
1.1224761346881099e6
100000.00000000004
99999.99999999926
100000.00000000131
99999.99999999574
100000.00000001094
99999.99999996841
100000.00000008692
99999.99999975668
100000.00000067671
99999.99999811224
100000.000005267
99999.99998528387
100000.0000411714
99999.9998846184
100000.00032396003
99999.99908847881
100000.00257073302
99999.99273122949
100000.02060983803
99999.94138701857
100000.16722920164
99999.52124162772
100001.37533412786
99996.04145727078
100011.22345764776
99973.69783022648
99902.45272956269
105664.22820796598
193842.4670199446
450056.01360386476
770045.3814322355
970606.1531898313
1.0373644546900338e6
1.0553916130838934e6
1.0641415911409464e6
1.070912813256087e6
1.07657288416587e6
1.08120089992704e6
1.0847889517676486e6
1.0873090327667617e6
1.0887087501747955e6
1.088941284111437e6
1.0879057050667172e6
1.085723217070576e6
1.0819360624741719e6
1.0788543486282516e6
1.0683522257054113e6
1.0952783591191117e6
100000.00000000012
99999.99999999967
100000.00000000065
99999.99999999737
100000.00000000653
99999.99999998084
100000.00000005243
99999.9999998537
100000.0000004046
99999.99999887668
100000.00000311305
99999.99999136355
100000.00002396622
99999.99993344457
100000.00018497549
99999.99948537491
100000.0014334664
99999.9960015717
100000.01117078686
99999.9687344591
100000.08768747952
99999.75350705157
100000.69452736189
99998.04175686222
100005.42029883749
99987.89675392503
99949.15111159628
102290.62948735658
164947.52071807536
389378.2388087579
709759.5845243669
937528.4460616561
1.0223660982946074e6
1.0447341330279597e6
1.0535321788587118e6
1.059536848058098e6
1.0642100669000265e6
1.0676824954435749e6
1.069917788582217e6
1.0708332097816013e6
1.070298455878815e6
1.068143705922442e6
1.0640729673965382e6
1.0578601195961393e6
1.0484935865177646e6
1.0373908790995168e6
1.0149837051101292e6
1.0333982854298804e6
100000.00000000015
99999.99999999971
100000.00000000044
99999.9999999986
100000.00000000314
99999.99999999035
100000.00000002547
99999.9999999293
100000.00000019216
99999.99999947693
100000.00000141576
99999.99999617644
100000.00001028446
99999.9999724462
100000.00007346536
99999.99980521775
100000.00051293065
99999.9986605411
100000.00346105904
99999.99117835365
100000.02207796786
99999.94613230588
100000.12654238252
99999.7219533676
100000.4960323071
100000.5568076682
99969.45924716417
100579.57986523307
141209.8496860261
329340.6193339268
641905.9275747085
896260.8226927497
1.0037973578741433e6
1.032871452819444e6
1.0422125751934324e6
1.0474576377703171e6
1.0510468312842473e6
1.0532226789965564e6
1.0539171452759383e6
1.0529793512581913e6
1.0501869677663643e6
1.0452484104847889e6
1.0377250259778807e6
1.027264919772146e6
1.012903020649421e6
996398.5680460368
968515.34515692
992014.8486539008
99999.99999999993
99999.99999999987
100000.0
99999.99999999948
100000.00000000105
99999.99999999677
100000.00000000771
99999.99999997977
100000.00000004991
99999.99999987718
100000.00000028811
99999.99999935941
100000.00000128466
99999.99999794489
100000.00000105951
100000.00001132528
99999.99992466545
100000.00034441316
99999.99862595729
100000.00510904555
99999.98179445011
100000.06307995168
99999.78563363827
100000.71893084953
99997.60281926184
100008.07627113316
99973.4981526849
99947.35785147197
123329.41717792288
272420.7157834572
567612.3188274928
845399.8737093601
980359.7998190676
1.0194386264714623e6
1.0301818426297919e6
1.0347684928527173e6
1.0372106847638437e6
1.0379756633530555e6
1.0369631182851421e6
1.0339291623455683e6
1.0284842962649721e6
1.020039518563766e6
1.0075805606071003e6
989532.2440862342
962177.2147431107
920537.9890069081
840683.9021008293
710183.7997092478
100000.00000000006
100000.00000000003
99999.99999999994
99999.99999999993
99999.99999999977
100000.0000000007
99999.99999999758
100000.0000000077
99999.99999997269
100000.00000009108
99999.99999969658
100000.00000099353
99999.99999677324
100000.00001038527
99999.99996680192
100000.00010551428
99999.99966619466
100000.00105204436
99999.99669421704
100000.01036359112
99999.96756526733
100000.10139556837
99999.68321518555
100000.98959306198
99996.91002276797
100009.51468999013
99976.45041265352
99847.2446091834
111308.72883293635
221238.2782795605
488953.25277974573
783871.2736136804
950363.4059590216
1.0038295191060334e6
1.0173845431245785e6
1.0215736938727926e6
1.022867648063964e6
1.022161882411917e6
1.0193632087846562e6
1.0141351351686604e6
1.0059305834486068e6
993902.3039476406
976622.181487529
951856.2100132655
915015.1145185586
860082.8263019101
767236.5674385441
628398.6430707772
99999.99999999993
99999.99999999997
99999.99999999977
100000.00000000025
99999.99999999924
100000.00000000204
99999.9999999934
100000.00000001838
99999.99999994472
100000.00000016426
99999.99999950925
100000.00000146488
99999.99999561964
100000.00001310001
99999.99996080376
100000.00011729698
99999.9996489263
100000.00105088108
99999.99685403628
100000.00941903633
99999.97179463411
100000.08448056193
99999.74688805679
100000.75852707386
99997.7300708361
100006.65044552005
99984.84701858467
99906.10599060496
104369.11705185167
178206.98419735336
408998.74858924275
711318.892074603
911762.417321802
985081.8581656078
1.0036550875495365e6
1.007966358489209e6
1.0082036882948275e6
1.0060414438954277e6
1.001477829029923e6
994120.1478201216
983317.928431808
968085.0420493273
946842.070016704
917253.847213594
875040.8311438729
815216.511024216
724471.2862300187
601440.0200193533
100000.0
99999.99999999994
99999.9999999999
100000.00000000023
99999.9999999993
100000.00000000227
99999.99999999334
100000.00000001848
99999.99999994643
100000.0000001529
99999.99999955951
100000.00000126506
99999.99999636103
100000.0000104602
99999.99996994477
100000.00008626087
99999.99975279077
100000.00070701385
99999.9979832889
100000.00573315874
99999.98377098392
100000.04569286855
99999.87223312735
100000.35402060303
99999.03332552336
100002.51636194384
99995.63491113835
99958.13606586574
101131.90983617964
145062.2897541053
331668.0691451274
628566.9528492141
862335.3934763422
961748.2852145005
988632.357586441
993991.9637547683
993398.9408473965
989876.2027403319
983659.3211279716
974361.2069978665
961296.2812769691
943456.0726636407
919313.2749568834
886755.1910131463
842283.2888772321
782320.5537572841
698731.3159689978
593235.6758949173
100000.0
99999.99999999997
100000.00000000006
100000.0000000002
99999.99999999933
100000.00000000159
99999.9999999948
100000.00000001371
99999.9999999611
100000.00000010719
99999.99999970179
100000.00000082317
99999.99999773
100000.00000622738
99999.99998301329
100000.0000459711
99999.99987685171
100000.00032539049
99999.99915623991
100000.00213024719
99999.99483313387
100000.01173660043
99999.9764586602
100000.03411466662
100000.01397404964
99999.55929239072
100003.14568625063
99977.78594031326
100048.64696134056
122331.6402136061
261324.79520693352
538046.166711162
800085.0185044367
931793.8054596382
971639.4539611487
979595.0253998917
978599.8871425729
973898.5512781042
966210.3216574497
955236.8747149983
940322.7443520915
920522.5150334826
894479.8209911252
860438.7361299826
815755.8474388772
758063.1457147711
682713.8736101193
592207.222637653
100000.0
99999.99999999993
99999.99999999983
100000.00000000019
99999.99999999949
100000.00000000109
99999.99999999661
100000.00000000816
99999.99999997727
100000.00000005937
99999.999999842
100000.00000041128
99999.99999894031
100000.0000026743
99999.9999934271
100000.00001550812
99999.99996573932
100000.00006682854
99999.99990546853
99999.99996959454
100000.00102685111
99999.99411614481
100000.02609764365
99999.89610049926
100000.39012020553
99998.5830875058
100005.03853440049
99985.34006124437
99877.2640980595
108985.75899092923
202098.35577566974
443994.4924685124
723889.4431277898
892592.9828483103
951525.2241578358
964540.6748373655
963885.4713011415
958291.7335949619
949364.9909078048
937015.2751221381
920675.9393181683
899517.200964379
872404.4059877477
837958.8363638949
794290.3736821731