# vtk DataFile Version 2.0
JuliaCFD
ASCII
DATASET UNSTRUCTURED_GRID

POINTS 32898 float
0.0 0.0 -0.05
0.0125 0.0 -0.05
0.025 0.0 -0.05
0.0375 0.0 -0.05
0.05 0.0 -0.05
0.0625 0.0 -0.05
0.075 0.0 -0.05
0.0875 0.0 -0.05
0.1 0.0 -0.05
0.1125 0.0 -0.05
0.125 0.0 -0.05
0.1375 0.0 -0.05
0.15 0.0 -0.05
0.1625 0.0 -0.05
0.175 0.0 -0.05
0.1875 0.0 -0.05
0.2 0.0 -0.05
0.2125 0.0 -0.05
0.225 0.0 -0.05
0.2375 0.0 -0.05
0.25 0.0 -0.05
0.2625 0.0 -0.05
0.275 0.0 -0.05
0.2875 0.0 -0.05
0.3 0.0 -0.05
0.3125 0.0 -0.05
0.325 0.0 -0.05
0.3375 0.0 -0.05
0.35 0.0 -0.05
0.3625 0.0 -0.05
0.375 0.0 -0.05
0.3875 0.0 -0.05
0.4 0.0 -0.05
0.4125 0.0 -0.05
0.425 0.0 -0.05
0.4375 0.0 -0.05
0.45 0.0 -0.05
0.4625 0.0 -0.05
0.475 0.0 -0.05
0.4875 0.0 -0.05
0.5 0.0 -0.05
0.5125 0.0 -0.05
0.525 0.0 -0.05
0.5375 0.0 -0.05
0.55 0.0 -0.05
0.5625 0.0 -0.05
0.575 0.0 -0.05
0.5875 0.0 -0.05
0.6 0.0 -0.05
0.0 0.0125 -0.05
0.0125 0.0125 -0.05
0.025 0.0125 -0.05
0.0375 0.0125 -0.05
0.05 0.0125 -0.05
0.0625 0.0125 -0.05
0.075 0.0125 -0.05
0.0875 0.0125 -0.05
0.1 0.0125 -0.05
0.1125 0.0125 -0.05
0.125 0.0125 -0.05
0.1375 0.0125 -0.05
0.15 0.0125 -0.05
0.1625 0.0125 -0.05
0.175 0.0125 -0.05
0.1875 0.0125 -0.05
0.2 0.0125 -0.05
0.2125 0.0125 -0.05
0.225 0.0125 -0.05
0.2375 0.0125 -0.05
0.25 0.0125 -0.05
0.2625 0.0125 -0.05
0.275 0.0125 -0.05
0.2875 0.0125 -0.05
0.3 0.0125 -0.05
0.3125 0.0125 -0.05
0.325 0.0125 -0.05
0.3375 0.0125 -0.05
0.35 0.0125 -0.05
0.3625 0.0125 -0.05
0.375 0.0125 -0.05
0.3875 0.0125 -0.05
0.4 0.0125 -0.05
0.4125 0.0125 -0.05
0.425 0.0125 -0.05
0.4375 0.0125 -0.05
0.45 0.0125 -0.05
0.4625 0.0125 -0.05
0.475 0.0125 -0.05
0.4875 0.0125 -0.05
0.5 0.0125 -0.05
0.5125 0.0125 -0.05
0.525 0.0125 -0.05
0.5375 0.0125 -0.05
0.55 0.0125 -0.05
0.5625 0.0125 -0.05
0.575 0.0125 -0.05
0.5875 0.0125 -0.05
0.6 0.0125 -0.05
0.0 0.025 -0.05
0.0125 0.025 -0.05
0.025 0.025 -0.05
0.0375 0.025 -0.05
0.05 0.025 -0.05
0.0625 0.025 -0.05
0.075 0.025 -0.05
0.0875 0.025 -0.05
0.1 0.025 -0.05
0.1125 0.025 -0.05
0.125 0.025 -0.05
0.1375 0.025 -0.05
0.15 0.025 -0.05
0.1625 0.025 -0.05
0.175 0.025 -0.05
0.1875 0.025 -0.05
0.2 0.025 -0.05
0.2125 0.025 -0.05
0.225 0.025 -0.05
0.2375 0.025 -0.05
0.25 0.025 -0.05
0.2625 0.025 -0.05
0.275 0.025 -0.05
0.2875 0.025 -0.05
0.3 0.025 -0.05
0.3125 0.025 -0.05
0.325 0.025 -0.05
0.3375 0.025 -0.05
0.35 0.025 -0.05
0.3625 0.025 -0.05
0.375 0.025 -0.05
0.3875 0.025 -0.05
0.4 0.025 -0.05
0.4125 0.025 -0.05
0.425 0.025 -0.05
0.4375 0.025 -0.05
0.45 0.025 -0.05
0.4625 0.025 -0.05
0.475 0.025 -0.05
0.4875 0.025 -0.05
0.5 0.025 -0.05
0.5125 0.025 -0.05
0.525 0.025 -0.05
0.5375 0.025 -0.05
0.55 0.025 -0.05
0.5625 0.025 -0.05
0.575 0.025 -0.05
0.5875 0.025 -0.05
0.6 0.025 -0.05
0.0 0.0375 -0.05
0.0125 0.0375 -0.05
0.025 0.0375 -0.05
0.0375 0.0375 -0.05
0.05 0.0375 -0.05
0.0625 0.0375 -0.05
0.075 0.0375 -0.05
0.0875 0.0375 -0.05
0.1 0.0375 -0.05
0.1125 0.0375 -0.05
0.125 0.0375 -0.05
0.1375 0.0375 -0.05
0.15 0.0375 -0.05
0.1625 0.0375 -0.05
0.175 0.0375 -0.05
0.1875 0.0375 -0.05
0.2 0.0375 -0.05
0.2125 0.0375 -0.05
0.225 0.0375 -0.05
0.2375 0.0375 -0.05
0.25 0.0375 -0.05
0.2625 0.0375 -0.05
0.275 0.0375 -0.05
0.2875 0.0375 -0.05
0.3 0.0375 -0.05
0.3125 0.0375 -0.05
0.325 0.0375 -0.05
0.3375 0.0375 -0.05
0.35 0.0375 -0.05
0.3625 0.0375 -0.05
0.375 0.0375 -0.05
0.3875 0.0375 -0.05
0.4 0.0375 -0.05
0.4125 0.0375 -0.05
0.425 0.0375 -0.05
0.4375 0.0375 -0.05
0.45 0.0375 -0.05
0.4625 0.0375 -0.05
0.475 0.0375 -0.05
0.4875 0.0375 -0.05
0.5 0.0375 -0.05
0.5125 0.0375 -0.05
0.525 0.0375 -0.05
0.5375 0.0375 -0.05
0.55 0.0375 -0.05
0.5625 0.0375 -0.05
0.575 0.0375 -0.05
0.5875 0.0375 -0.05
0.6 0.0375 -0.05
0.0 0.05 -0.05
0.0125 0.05 -0.05
0.025 0.05 -0.05
0.0375 0.05 -0.05
0.05 0.05 -0.05
0.0625 0.05 -0.05
0.075 0.05 -0.05
0.0875 0.05 -0.05
0.1 0.05 -0.05
0.1125 0.05 -0.05
0.125 0.05 -0.05
0.1375 0.05 -0.05
0.15 0.05 -0.05
0.1625 0.05 -0.05
0.175 0.05 -0.05
0.1875 0.05 -0.05
0.2 0.05 -0.05
0.2125 0.05 -0.05
0.225 0.05 -0.05
0.2375 0.05 -0.05
0.25 0.05 -0.05
0.2625 0.05 -0.05
0.275 0.05 -0.05
0.2875 0.05 -0.05
0.3 0.05 -0.05
0.3125 0.05 -0.05
0.325 0.05 -0.05
0.3375 0.05 -0.05
0.35 0.05 -0.05
0.3625 0.05 -0.05
0.375 0.05 -0.05
0.3875 0.05 -0.05
0.4 0.05 -0.05
0.4125 0.05 -0.05
0.425 0.05 -0.05
0.4375 0.05 -0.05
0.45 0.05 -0.05
0.4625 0.05 -0.05
0.475 0.05 -0.05
0.4875 0.05 -0.05
0.5 0.05 -0.05
0.5125 0.05 -0.05
0.525 0.05 -0.05
0.5375 0.05 -0.05
0.55 0.05 -0.05
0.5625 0.05 -0.05
0.575 0.05 -0.05
0.5875 0.05 -0.05
0.6 0.05 -0.05
0.0 0.0625 -0.05
0.0125 0.0625 -0.05
0.025 0.0625 -0.05
0.0375 0.0625 -0.05
0.05 0.0625 -0.05
0.0625 0.0625 -0.05
0.075 0.0625 -0.05
0.0875 0.0625 -0.05
0.1 0.0625 -0.05
0.1125 0.0625 -0.05
0.125 0.0625 -0.05
0.1375 0.0625 -0.05
0.15 0.0625 -0.05
0.1625 0.0625 -0.05
0.175 0.0625 -0.05
0.1875 0.0625 -0.05
0.2 0.0625 -0.05
0.2125 0.0625 -0.05
0.225 0.0625 -0.05
0.2375 0.0625 -0.05
0.25 0.0625 -0.05
0.2625 0.0625 -0.05
0.275 0.0625 -0.05
0.2875 0.0625 -0.05
0.3 0.0625 -0.05
0.3125 0.0625 -0.05
0.325 0.0625 -0.05
0.3375 0.0625 -0.05
0.35 0.0625 -0.05
0.3625 0.0625 -0.05
0.375 0.0625 -0.05
0.3875 0.0625 -0.05
0.4 0.0625 -0.05
0.4125 0.0625 -0.05
0.425 0.0625 -0.05
0.4375 0.0625 -0.05
0.45 0.0625 -0.05
0.4625 0.0625 -0.05
0.475 0.0625 -0.05
0.4875 0.0625 -0.05
0.5 0.0625 -0.05
0.5125 0.0625 -0.05
0.525 0.0625 -0.05
0.5375 0.0625 -0.05
0.55 0.0625 -0.05
0.5625 0.0625 -0.05
0.575 0.0625 -0.05
0.5875 0.0625 -0.05
0.6 0.0625 -0.05
0.0 0.075 -0.05
0.0125 0.075 -0.05
0.025 0.075 -0.05
0.0375 0.075 -0.05
0.05 0.075 -0.05
0.0625 0.075 -0.05
0.075 0.075 -0.05
0.0875 0.075 -0.05
0.1 0.075 -0.05
0.1125 0.075 -0.05
0.125 0.075 -0.05
0.1375 0.075 -0.05
0.15 0.075 -0.05
0.1625 0.075 -0.05
0.175 0.075 -0.05
0.1875 0.075 -0.05
0.2 0.075 -0.05
0.2125 0.075 -0.05
0.225 0.075 -0.05
0.2375 0.075 -0.05
0.25 0.075 -0.05
0.2625 0.075 -0.05
0.275 0.075 -0.05
0.2875 0.075 -0.05
0.3 0.075 -0.05
0.3125 0.075 -0.05
0.325 0.075 -0.05
0.3375 0.075 -0.05
0.35 0.075 -0.05
0.3625 0.075 -0.05
0.375 0.075 -0.05
0.3875 0.075 -0.05
0.4 0.075 -0.05
0.4125 0.075 -0.05
0.425 0.075 -0.05
0.4375 0.075 -0.05
0.45 0.075 -0.05
0.4625 0.075 -0.05
0.475 0.075 -0.05
0.4875 0.075 -0.05
0.5 0.075 -0.05
0.5125 0.075 -0.05
0.525 0.075 -0.05
0.5375 0.075 -0.05
0.55 0.075 -0.05
0.5625 0.075 -0.05
0.575 0.075 -0.05
0.5875 0.075 -0.05
0.6 0.075 -0.05
0.0 0.0875 -0.05
0.0125 0.0875 -0.05
0.025 0.0875 -0.05
0.0375 0.0875 -0.05
0.05 0.0875 -0.05
0.0625 0.0875 -0.05
0.075 0.0875 -0.05
0.0875 0.0875 -0.05
0.1 0.0875 -0.05
0.1125 0.0875 -0.05
0.125 0.0875 -0.05
0.1375 0.0875 -0.05
0.15 0.0875 -0.05
0.1625 0.0875 -0.05
0.175 0.0875 -0.05
0.1875 0.0875 -0.05
0.2 0.0875 -0.05
0.2125 0.0875 -0.05
0.225 0.0875 -0.05
0.2375 0.0875 -0.05
0.25 0.0875 -0.05
0.2625 0.0875 -0.05
0.275 0.0875 -0.05
0.2875 0.0875 -0.05
0.3 0.0875 -0.05
0.3125 0.0875 -0.05
0.325 0.0875 -0.05
0.3375 0.0875 -0.05
0.35 0.0875 -0.05
0.3625 0.0875 -0.05
0.375 0.0875 -0.05
0.3875 0.0875 -0.05
0.4 0.0875 -0.05
0.4125 0.0875 -0.05
0.425 0.0875 -0.05
0.4375 0.0875 -0.05
0.45 0.0875 -0.05
0.4625 0.0875 -0.05
0.475 0.0875 -0.05
0.4875 0.0875 -0.05
0.5 0.0875 -0.05
0.5125 0.0875 -0.05
0.525 0.0875 -0.05
0.5375 0.0875 -0.05
0.55 0.0875 -0.05
0.5625 0.0875 -0.05
0.575 0.0875 -0.05
0.5875 0.0875 -0.05
0.6 0.0875 -0.05
0.0 0.1 -0.05
0.0125 0.1 -0.05
0.025 0.1 -0.05
0.0375 0.1 -0.05
0.05 0.1 -0.05
0.0625 0.1 -0.05
0.075 0.1 -0.05
0.0875 0.1 -0.05
0.1 0.1 -0.05
0.1125 0.1 -0.05
0.125 0.1 -0.05
0.1375 0.1 -0.05
0.15 0.1 -0.05
0.1625 0.1 -0.05
0.175 0.1 -0.05
0.1875 0.1 -0.05
0.2 0.1 -0.05
0.2125 0.1 -0.05
0.225 0.1 -0.05
0.2375 0.1 -0.05
0.25 0.1 -0.05
0.2625 0.1 -0.05
0.275 0.1 -0.05
0.2875 0.1 -0.05
0.3 0.1 -0.05
0.3125 0.1 -0.05
0.325 0.1 -0.05
0.3375 0.1 -0.05
0.35 0.1 -0.05
0.3625 0.1 -0.05
0.375 0.1 -0.05
0.3875 0.1 -0.05
0.4 0.1 -0.05
0.4125 0.1 -0.05
0.425 0.1 -0.05
0.4375 0.1 -0.05
0.45 0.1 -0.05
0.4625 0.1 -0.05
0.475 0.1 -0.05
0.4875 0.1 -0.05
0.5 0.1 -0.05
0.5125 0.1 -0.05
0.525 0.1 -0.05
0.5375 0.1 -0.05
0.55 0.1 -0.05
0.5625 0.1 -0.05
0.575 0.1 -0.05
0.5875 0.1 -0.05
0.6 0.1 -0.05
0.0 0.1125 -0.05
0.0125 0.1125 -0.05
0.025 0.1125 -0.05
0.0375 0.1125 -0.05
0.05 0.1125 -0.05
0.0625 0.1125 -0.05
0.075 0.1125 -0.05
0.0875 0.1125 -0.05
0.1 0.1125 -0.05
0.1125 0.1125 -0.05
0.125 0.1125 -0.05
0.1375 0.1125 -0.05
0.15 0.1125 -0.05
0.1625 0.1125 -0.05
0.175 0.1125 -0.05
0.1875 0.1125 -0.05
0.2 0.1125 -0.05
0.2125 0.1125 -0.05
0.225 0.1125 -0.05
0.2375 0.1125 -0.05
0.25 0.1125 -0.05
0.2625 0.1125 -0.05
0.275 0.1125 -0.05
0.2875 0.1125 -0.05
0.3 0.1125 -0.05
0.3125 0.1125 -0.05
0.325 0.1125 -0.05
0.3375 0.1125 -0.05
0.35 0.1125 -0.05
0.3625 0.1125 -0.05
0.375 0.1125 -0.05
0.3875 0.1125 -0.05
0.4 0.1125 -0.05
0.4125 0.1125 -0.05
0.425 0.1125 -0.05
0.4375 0.1125 -0.05
0.45 0.1125 -0.05
0.4625 0.1125 -0.05
0.475 0.1125 -0.05
0.4875 0.1125 -0.05
0.5 0.1125 -0.05
0.5125 0.1125 -0.05
0.525 0.1125 -0.05
0.5375 0.1125 -0.05
0.55 0.1125 -0.05
0.5625 0.1125 -0.05
0.575 0.1125 -0.05
0.5875 0.1125 -0.05
0.6 0.1125 -0.05
0.0 0.125 -0.05
0.0125 0.125 -0.05
0.025 0.125 -0.05
0.0375 0.125 -0.05
0.05 0.125 -0.05
0.0625 0.125 -0.05
0.075 0.125 -0.05
0.0875 0.125 -0.05
0.1 0.125 -0.05
0.1125 0.125 -0.05
0.125 0.125 -0.05
0.1375 0.125 -0.05
0.15 0.125 -0.05
0.1625 0.125 -0.05
0.175 0.125 -0.05
0.1875 0.125 -0.05
0.2 0.125 -0.05
0.2125 0.125 -0.05
0.225 0.125 -0.05
0.2375 0.125 -0.05
0.25 0.125 -0.05
0.2625 0.125 -0.05
0.275 0.125 -0.05
0.2875 0.125 -0.05
0.3 0.125 -0.05
0.3125 0.125 -0.05
0.325 0.125 -0.05
0.3375 0.125 -0.05
0.35 0.125 -0.05
0.3625 0.125 -0.05
0.375 0.125 -0.05
0.3875 0.125 -0.05
0.4 0.125 -0.05
0.4125 0.125 -0.05
0.425 0.125 -0.05
0.4375 0.125 -0.05
0.45 0.125 -0.05
0.4625 0.125 -0.05
0.475 0.125 -0.05
0.4875 0.125 -0.05
0.5 0.125 -0.05
0.5125 0.125 -0.05
0.525 0.125 -0.05
0.5375 0.125 -0.05
0.55 0.125 -0.05
0.5625 0.125 -0.05
0.575 0.125 -0.05
0.5875 0.125 -0.05
0.6 0.125 -0.05
0.0 0.1375 -0.05
0.0125 0.1375 -0.05
0.025 0.1375 -0.05
0.0375 0.1375 -0.05
0.05 0.1375 -0.05
0.0625 0.1375 -0.05
0.075 0.1375 -0.05
0.0875 0.1375 -0.05
[...]
CELL_DATA 16128
SCALARS P float 1
LOOKUP_TABLE default
100000.00000013277
100000.00000040885
100000.00000126875
100000.00000394606
100000.0000122831
100000.00003823696
100000.0001190205
100000.00037042025
100000.00115265713
100000.00358623893
100000.01115617098
100000.03470017105
100000.10791757726
100000.33558310363
100001.04341616904
100003.24387771117
100010.0835687851
100031.33878140246
100097.36201077621
100302.20415176294
100935.6818444486
102877.32259889094
108692.31997558015
125150.08601378313
166360.4610938018
250771.44599837088
386503.4439692881
557575.3961055529
728287.8308944892
865322.5342608534
956919.1740124907
1.0113531436437418e6
1.0430157909194567e6
1.0630083931912843e6
1.0775606086370847e6
1.0895974378485254e6
1.1003355398429527e6
1.1102274019482394e6
1.1194147509989666e6
1.1279213559761543e6
1.135727753449835e6
1.1427980766292606e6
1.1490894128811574e6
1.1545555195523808e6
1.1591488757391798e6
1.162825460030012e6
1.1657827462419455e6
1.187798056477328e6
100000.00000013187
100000.0000004061
100000.00000125979
100000.00000391788
100000.0000121943
100000.00003795607
100000.0001181307
100000.00036760312
100000.00114373768
100000.00355799857
100000.01106676199
100000.03441712784
100000.10702169598
100000.33274828414
100001.03445012122
100003.21554072584
100009.99411977603
100031.05700885241
100096.47765582698
100299.44773993836
100927.20971685853
102852.04380513694
108621.62573464047
124979.12403635796
166062.13477321583
250568.43470463587
387134.2063186079
560196.9835115045
733873.5088619541
874070.9484661967
968293.367796839
1.0245799470057942e6
1.0574677256391984e6
1.0782940329027222e6
1.0934703775294223e6
1.1060306603737685e6
1.117247960439071e6
1.127599682333386e6
1.137234599192665e6
1.1461732266264586e6
1.1543865227382486e6
1.1618249742647398e6
1.1684297573890272e6
1.1741387438917314e6
1.1788922156505582e6
1.1826451293232269e6
1.1856800511752723e6
1.2081348902516887e6
100000.00000012993
100000.00000039968
100000.00000123968
100000.00000385499
100000.00001199503
100000.0000373256
100000.000116135
100000.00036128498
100000.00112373417
100000.00349466702
100000.01086625543
100000.03378236099
100000.10501234006
100000.32638875679
100001.01432811811
100003.15190140727
100009.7929895576
100030.42205647669
100094.47700439973
100293.16654942736
100907.63588236728
102792.05160477872
108444.56466916083
124499.05637302893
164960.6618770954
248583.3903815697
384391.2217165949
557293.934191251
731554.3793736959
872762.172685177
967953.2497980676
1.0249135855517446e6
1.0581731902061002e6
1.0791570262909736e6
1.094359555553055e6
1.1068692863027959e6
1.1179906183497272e6
1.1282178163250436e6
1.137708533928871e6
1.146488156111784e6
1.15453081741747e6
1.1617898950164057e6
1.1682101056742466e6
1.17373411414685e6
1.1783084196500108e6
1.1818993518686704e6
1.1849408539654838e6
1.2076416440592129e6
100000.00000012683
100000.00000039033
100000.00000121002
100000.00000376103
100000.0000116975
100000.00003638367
100000.00011315414
100000.00035185013
100000.00109387009
100000.00340013448
100000.01056701322
100000.03283510885
100000.10201387979
100000.31689790268
100000.98429065383
100003.05685453603
100009.49232988895
100029.47149569256
100091.47472375807
100283.7042181937
100877.96534672884
102700.20418005645
108169.13707770279
123733.23602188856
163135.15934924397
245109.23066736417
379203.9132499666
551122.9937174072
725556.6109470645
867788.8305313573
964166.178556623
1.0220126979352094e6
1.0557792435977694e6
1.0769920391770247e6
1.0922592942527982e6
1.1047466893890635e6
1.115802959563491e6
1.12594653873294e6
1.135348542367841e6
1.1440425316576434e6
1.1520082311845985e6
1.1592031348119215e6
1.1655747675642348e6
1.171066735840968e6
1.175623548535393e6
1.1792127780676382e6
1.1824377870899944e6
1.205576324548322e6
100000.00000012293
100000.0000003779
100000.00000117123
100000.00000363853
100000.0000113107
100000.0000351602
100000.00010928312
100000.00033960192
100000.00105511413
100000.00327749475
100000.01017891162
100000.03160686688
100000.09812660405
100000.30459446838
100000.94534831362
100002.93359409264
100009.10219602856
100028.23683674146
100087.56906577112
100271.36565463794
100839.14063220138
102579.40215333478
107804.14543554868
122706.98166603643
160650.92542374
240298.7199111097
371900.97381699533
542301.7411323852
716858.5006361968
860472.889747142
958512.2275346757
1.0176149933850652e6
1.0521018099877757e6
1.0736421699994456e6
1.0890097788002542e6
1.1014816332322846e6
1.112468739487488e6
1.122522083874852e6
1.1318298783589727e6
1.1404352590039698e6
1.1483237712417578e6
1.155456432886876e6
1.1617822582024676e6
1.1672440118343802e6
1.1717831351839642e6
1.1753739918696992e6
1.17881600297801e6
1.2025251408618744e6
100000.00000011823
100000.00000036298
100000.0000011245
100000.00000349105
100000.00001084447
100000.00003368645
100000.00010462273
100000.00032486412
100000.00100850414
100000.00313007558
100000.00971260837
100000.03013175778
100000.09345971975
100000.28982776795
100000.89861783772
100002.78568879764
100008.6339917586
100026.7545432456
100082.8768189637
100256.5259118265
100792.36821778161
102433.50215324742
107361.51845062275
121453.55893573115
157582.3432178151
234277.01213940178
362647.665421452
531016.6748110015
705660.6400986183
851039.9721404619
951253.4398091087
1.0120145279910796e6
1.0474509218161686e6
1.069416744627723e6
1.084907378744937e6
1.0973496120517252e6
1.1082374051181676e6
1.1181641204582464e6
1.1273394405206898e6
1.1358180018607154e6
1.1435920688743612e6
1.1506266854682679e6
1.1568728268957993e6
1.1622733261095847e6
1.1667690116614252e6
1.1703498595622557e6
1.1740322505717773e6
1.1984531647447038e6
100000.00000011263
100000.00000034596
100000.00000107083
100000.000003322
100000.00001031012
100000.00003199777
100000.000099287
100000.00030800232
100000.00095521347
100000.00296163931
100000.0091801805
100000.02844855338
100000.08813773518
100000.27299784399
100000.84538553818
100002.61727953971
100008.10107058416
100025.06778335778
100077.53796931755
100239.64028353382
100739.1287135407
102267.2657303482
106855.96029384587
120013.54418753432
154017.3799372261
227178.72999600685
351583.53434492525
517356.08992835943
691977.5473301004
839460.4105860647
942362.5996081815
1.0052104990232014e6
1.0418505842950125e6
1.0643529620719552e6
1.0799913230183546e6
1.0923839663034414e6
1.1031312353991312e6
1.1128803896847672e6
1.1218679305753037e6
1.1301625961419272e6
1.1377649727187601e6
1.14464559285687e6
1.1507592034670487e6
1.1560512973880281e6
1.160466286659343e6
1.1640197074070028e6
1.1679651766462354e6
1.1932698189300252e6
100000.00000010665
100000.00000032707
100000.00000101146
100000.00000313479
100000.00000971963
100000.00003013371
100000.00009340135
100000.00028941873
100000.00089653237
100000.00277633054
100000.00859493986
100000.02660003782
100000.08229827136
100000.25454781782
100000.78708006222
100002.43298003628
100007.51836332635
100023.22499606693
100071.71007158977
100221.22209942977
100681.09102382898
102086.04757657314
106303.96756806721
118432.62636621197
150056.3143740163
219158.28994588213
338864.297639851
501402.7415335691
675785.0268759445
825637.734175205
931733.8400380949
997125.4478146941
1.0352560701459827e6
1.0584278623620486e6
1.0742480064538682e6
1.086571013394116e6
1.0971299809559872e6
1.1066394793299055e6
1.115369227973815e6
1.1234053067843786e6
1.1307588212452275e6
1.1374080600879434e6
1.1433145097839297e6
1.148430459294709e6
1.1527100197898473e6
1.1562067645513813e6
1.1604381746835867e6
1.1868441133705142e6
100000.0000001
100000.00000030661
100000.00000094768
100000.00000293374
100000.00000908601
100000.0000281355
100000.00008709884
100000.00026953923
100000.00083382742
100000.00257853373
100000.00797096528
100000.0246314567
100000.0760868657
100000.2349463526
100000.72521263952
100002.2376710279
100006.9016614791
100021.27737214036
100065.55934872797
100201.81137821038
100620.00396548238
101895.43768896525
105722.76020978305
116759.06945676163
145808.37249586827
210390.84799984295
324674.64109685965
483262.4593559112
657061.5142615646
809455.5856553178
919229.9292987122
987650.9805895915
1.0275973912750909e6
1.0515990830372293e6
1.067648711349228e6
1.0798845422202188e6
1.0902019847023336e6
1.0993983902240398e6
1.1077841259961708e6
1.1154663086727518e6
1.122469062842096e6
1.1287811900104005e6
1.1343748199664338e6
1.1392148471403331e6
1.1432740363361351e6
1.1466617294348034e6
1.1512001583579204e6
1.1789948141857814e6
100000.00000009297
100000.00000028532
100000.00000088061
100000.00000272316
100000.00000842239
100000.00002604534
100000.00008051467
100000.00024879802
100000.00076848918
100000.00237270462
100000.00732254607
100000.02258866455
100000.06965079813
100000.21466695813
100000.66130731981
100002.03626390123
100006.2668128971
100019.2761116898
100059.25135677427
100181.943295956
100557.59163328407
101700.92632597366
105129.28212276347
115041.17340386045
141387.43136279963
201069.56594099206
309232.0966103037
463076.17562424275
635804.5138963074
790793.0035356716
904694.2792213035
976657.8264943458
1.0187888973623322e6
1.043814450551859e6
1.0601590782175811e6
1.072294941514397e6
1.0823127642907433e6
1.0911103530580567e6
1.0990470607029588e6
1.1062548005689168e6
1.1127729230936e6
1.1186033058637746e6
1.1237329704391512e6
1.1281468480128217e6
1.1318492632970186e6
1.135032156710721e6
1.1398894304719646e6
1.169473198229664e6
100000.00000008597
100000.0000002634
100000.0000008118
100000.0000025068
100000.00000774201
100000.00002390519
100000.00007378243
100000.00022762138
100000.00070187991
100000.00216319959
100000.0066636173
100000.02051626399
100000.063132918
100000.1941674696
100000.59683257822
100001.83347230966
100005.62895894307
100017.26988042735
100052.94254161681
100162.12039816235
100495.46322950964
101507.61830826149
104539.33434863045
113324.89578839797
136907.24698613264
191400.8636354579
292787.4798611715
441027.6840682231
612042.1517837503
769533.6080150048
887955.2934063089
963997.4710482066
1.0087308403527514e6
1.0350146099182653e6
1.0517428964941874e6
1.0637739282998403e6
1.0734304283103219e6
1.0817306740036104e6
1.0890920194257475e6
1.095674339881544e6
1.1015330525143442e6
1.1066841110717899e6
1.1111324660692136e6
1.11489114546681e6
1.1180132618020813e6
1.1208138270182714e6
1.1259710463626927e6
1.1579326938808158e6
100000.00000007874
100000.00000024121
100000.0000007423
100000.00000228868
100000.00000705756
100000.00002175494
100000.00006702918
100000.00020641329
100000.00063528589
100000.00195411783
100000.00600724427
100000.01845591163
100000.05666608368
100000.17387176031
100000.53314116043
100001.63361447572
100005.00188618785
100015.30269200778
100046.773362153
100142.79044181587
100435.042337474
101320.00970930698
103966.87990973194
111651.77055828818
132476.515988854
181598.08954086367
275622.94539059146
417349.7958560169
585844.7024520297
745575.255579841
868830.0147906553
949501.7138471251
997308.3668753294
1.0251333609355517e6
1.0423642527373033e6
1.0542984350216687e6
1.063531152155897e6
1.0712236645188122e6
1.0778607043130929e6
1.0836317010061468e6
1.0886058464658847e6
1.0928101016084114e6
1.0962655475662001e6
1.0990185794227347e6
1.101190017176105e6
1.1032746782175908e6
1.1086243076416745e6
1.1438670129157854e6
100000.00000007162
100000.00000021911
100000.00000067343
100000.00000207266
100000.00000638017
100000.00001963112
100000.00006037074
100000.00018554219
100000.0005698767
100000.00174916786
100000.00536518941
100000.01644491346
100000.05036860722
100000.15415498438
100000.47142236798
100001.44045938182
100004.39753278116
100013.4123330963
100040.86330098764
100124.3307043763
100377.51779340897
101141.83330854279
103423.54637928709
110057.24898530896
128194.10366899673
171873.80156551753
258047.47029531634
392328.81038995995
557336.873121699
718842.0656777644
847129.4018218801
932982.1277626962
984389.3652678097
1.014096698398035e6
1.0319887556167376e6
1.0438542253373904e6
1.0526052753939359e6
1.0595714088695156e6
1.0653142004128443e6
1.0700514480895416e6
1.07385815095755e6
1.0767614000164594e6
1.0787856698344264e6
1.07999944594266e6
1.0806033959154347e6
1.081340116207989e6
1.086537252765105e6
1.1264556992680193e6
100000.00000006464
100000.00000019756
100000.00000060585
100000.00000186187
100000.00000572027
100000.00001756627
100000.00005390972
100000.00016533147
100000.00050667186
100000.0015515647
100000.00474758518
100000.01451518293
100000.04434093727
100000.13533306932
100000.41266892901
100001.2571229904
100003.82566601742
100011.62937153333
100035.30784746601
100107.03889703788
100323.81632574316
100975.97370174257
102918.33753554066
108569.56147977781
124144.82056666534
162430.9713112848
240389.34186399053
366306.36898966756
526710.2896592135
689299.35529514
822666.4455219781
914230.4404567906
969821.6962210743
1.0018207077010984e6
1.0205837621679293e6
1.032439042502125e6
1.0406638220899849e6
1.0467843863221792e6
1.051448832382256e6
1.0548985426215928e6
1.0571985763479436e6
1.058346780958706e6
1.0583388625856393e6
1.0572274928768307e6
1.055256096450357e6
1.0534535860118328e6
1.0575455864180084e6
1.1041072550365054e6
100000.00000005787
100000.00000017653
100000.0000005409
100000.00000165911
100000.00000508688
100000.00001558791
100000.00004773293
100000.0001460522
100000.00044652038
100000.00136396317
100000.00416272381
100000.01269258975
100000.03866366735
100000.11765667264
100000.35765891393
100001.08601505918
100003.29372951185
100009.97673074191
100030.17736111917
100091.13028236074
100274.59549038902
100824.4478195665
102457.54890331926
107209.15407293451
120396.142259586
153453.67962500232
222985.37694236342
339677.4860316385
494234.9569332536
656971.3671562943
795268.0351085993
893020.7335522823
953430.1653182871
988208.2028713415
1.0081171730684008e6
1.0200646089512315e6
1.027744543039848e6
1.0329128785884121e6
1.036315025716319e6
1.038207382422984e6
1.0386177795370807e6
1.03747142926142e6
1.0346583109870248e6
1.0301087449261992e6
1.023979981534162e6
1.0174918549452411e6
1.0181099623675501e6
1.0729376042020414e6
100000.00000005137
100000.00000015665
100000.0000004792
100000.00000146661
100000.0000044869
100000.00001371831
100000.00004190941
100000.00012791973
100000.00039008852
100000.00118842348
100000.00361696191
100000.01099669658
100000.03339682939
100000.10130941255
100000.30695181359
100000.9288327786
100002.8068446881
100008.46977070268
100025.51759117782
100076.74018450809
100230.25411258878
100688.44215291181
102044.86597754246
105988.69682298502
116996.2107387238
145098.14877072425
206166.9801136185
312883.54791543103
460267.9637226688
621961.0793996345
764791.3006195714
869114.4835654953
935013.6903124766
973143.9335497611
994554.1392139904
1.0067563620379831e6
1.0139158406843002e6
1.0180569568681249e6
1.02003654421225e6
1.0201186951216361e6
1.0182614969965605e6
1.0142438032565957e6
1.0077187731878624e6
998269.6333569348
985614.1801470586
970675.185689907
962047.1361364956
1.0188763890571753e6
100000.00000004527
100000.00000013788
100000.00000042119
100000.00000128619
100000.00000392598
100000.00001197464
100000.00003649104
100000.0001110925
100000.00033785964
100000.00102641268
100000.00311473449
100000.00944084745
100000.02858033997
100000.0864098658
100000.26089690847
100000.78659437249
100002.36794167732
100007.1167863634
100021.35153743545
100063.93079869136
100190.95652716176
100568.39471783668
101681.61092494547
104913.6037204095
113973.32221119636
137485.1609757801
190243.7058651175
286399.3123043928
425257.30994245893
584470.6618762618
731144.8616092575
842269.676643007
914343.3928128803
956488.3048721408
979850.9371545069
992549.4242423675
999275.9176260207
1.0023701593370241e6
1.0028266884797086e6
1.0009181366566491e6
996501.7941773037
989122.8208977947
977980.4403905397
961737.0878200663
938041.4350720006
902434.2811401882
845787.4798122525
742645.7091764858
100000.00000003967
100000.00000012059
100000.0000003672
100000.00000111909
100000.00000340787
100000.00001036812
100000.00003151258
100000.00009567382
100000.0002901401
100000.00087883096
100000.00265865805
100000.00803255038
100000.02423539953
100000.07301662496
100000.21965142715
100000.65970387617
100001.97798906022
100005.91981773858
100017.68228916373
100052.70106127598
100156.66644226517
100464.10802640197
101367.0952992416
103982.95598134783
111336.91356931362
130694.94620476138
175485.66948114985
260713.47664787935
389738.53934217116
544820.2904188153
694314.8502674539
812255.4048998912
891162.7936379368
938069.9213076176
963945.508387655
977479.3930845229
983944.2773179493
986053.9669408113
984986.0165639045
981050.4119619816
974024.2534025648
963256.1604764956
947596.5660316598
925136.5911523846
892662.2675047888
844667.9078975021
771828.9461519782
658131.9063723271
100000.00000003443
100000.0000001046
100000.0000003179
100000.00000096633
100000.00000293502
100000.0000089058
100000.00002699303
100000.00008171696
100000.00024707506
100000.00074606318
100000.00224970687
100000.00677408882
100000.02036660345
100000.06113559491
100000.18320568482
100000.5480375138
100001.63628986102
100004.87566129824
100014.49646953659
100042.99832795856
100127.18623152951
100374.8791197844
101099.0335071345
103190.69130884563
109079.85004424363
124765.40567133392
162106.83042356005
236303.25645568545
354322.008996005
503462.1479574417
654394.6559183991
778873.3553913448
865191.8780273139
917677.9323072495
946744.8356608511
961567.2151566631
968042.4246355665
969330.1616234357
966853.1423412826
961015.9712795152
951582.7211224269
937819.8531544046
918459.831801258
891516.0091181098
853959.6471376051
801339.6976876871
727738.953686656
626914.6403181643
100000.00000002977
100000.00000009003
100000.00000027307
100000.00000082795
100000.00000250821
100000.00000758958
100000.00002293705
100000.00006923004
100000.00020866746
100000.00062804481
100000.00188743805
100000.00566328267
100000.01696452082
100000.05072869237
100000.15141238758
100000.45104224571
100001.3408123058
100003.97697780025
100011.76793739725
100034.73070565907
100102.19782379703
100299.63388755871
100873.97416565358
102526.91425083933
107181.64309222746
119694.05863637205
150251.64301569326
213604.60282910886
319669.26994004095
460985.7334923148
611616.016886899
741987.2353964894
836137.4119502741
895056.1571708674
928110.8603364327
944800.8215880622
951670.8188515471
952403.1551928964
948744.0617799434
941264.539598977
929801.1385810433
913660.1019155639
891651.4587148104
862022.1232021974
822361.936256021
769640.3729517525
700759.1241408068
614231.3615856196
100000.00000002536
100000.0000000768
100000.00000023282
100000.00000070424
100000.00000212714
100000.0000064177
100000.00001933727
100000.00005818268
100000.00017480046
100000.00052433822
100000.00157024483
100000.00469433355
100000.01400850074
100000.04172316339
100000.12401751883
100000.3678379664
100001.08852739021
100003.21340513274
100009.46144801407
100027.77906540125
100081.30200678328
100237.05509282755
100687.71304355856
101979.19544749611
105612.13466526096
115443.44729170158
139987.5686663367
192981.07022223296
286458.28014774714
418110.3568438721
566377.4410606178
701560.1767497589
803712.1970289863
869901.7066352421
907847.1591595218
927115.661900404
934884.8844569536
935430.9285813945
930909.214147716
922136.4038575398
909103.5575760719
891252.6497053674
867589.195761301
836719.9250954933
796909.1549409622
746297.6324252
683527.7084645192
609024.46331329
100000.0000000217
100000.00000006506
100000.00000019706
100000.0000005944
100000.00000179031
100000.00000538552
100000.00001617627
100000.00004851402
100000.00014526247
100000.00043421234
100000.00129561989
100000.00385868677
100000.01146950133
100000.03402084393
100000.10069060902
100000.2973162714
100000.87573048315
100002.57260321817
100007.53604006748
100022.00799475535
100064.0537703459
100185.69631230783
100535.66045283352
101533.7547700023
104335.18880849818
111949.09232764531
131305.2544648837
174695.63484223487
255339.03265540104
375661.25289440004
519264.25173186837
657698.3606965503
767665.7432346025
841871.5036437294
885689.5962077804