# vtk DataFile Version 2.0
JuliaCFD
ASCII
DATASET UNSTRUCTURED_GRID

POINTS 32898 float
0.0 0.0 -0.05
0.0125 0.0 -0.05
0.025 0.0 -0.05
0.0375 0.0 -0.05
0.05 0.0 -0.05
0.0625 0.0 -0.05
0.075 0.0 -0.05
0.0875 0.0 -0.05
0.1 0.0 -0.05
0.1125 0.0 -0.05
0.125 0.0 -0.05
0.1375 0.0 -0.05
0.15 0.0 -0.05
0.1625 0.0 -0.05
0.175 0.0 -0.05
0.1875 0.0 -0.05
0.2 0.0 -0.05
0.2125 0.0 -0.05
0.225 0.0 -0.05
0.2375 0.0 -0.05
0.25 0.0 -0.05
0.2625 0.0 -0.05
0.275 0.0 -0.05
0.2875 0.0 -0.05
0.3 0.0 -0.05
0.3125 0.0 -0.05
0.325 0.0 -0.05
0.3375 0.0 -0.05
0.35 0.0 -0.05
0.3625 0.0 -0.05
0.375 0.0 -0.05
0.3875 0.0 -0.05
0.4 0.0 -0.05
0.4125 0.0 -0.05
0.425 0.0 -0.05
0.4375 0.0 -0.05
0.45 0.0 -0.05
0.4625 0.0 -0.05
0.475 0.0 -0.05
0.4875 0.0 -0.05
0.5 0.0 -0.05
0.5125 0.0 -0.05
0.525 0.0 -0.05
0.5375 0.0 -0.05
0.55 0.0 -0.05
0.5625 0.0 -0.05
0.575 0.0 -0.05
0.5875 0.0 -0.05
0.6 0.0 -0.05
0.0 0.0125 -0.05
0.0125 0.0125 -0.05
0.025 0.0125 -0.05
0.0375 0.0125 -0.05
0.05 0.0125 -0.05
0.0625 0.0125 -0.05
0.075 0.0125 -0.05
0.0875 0.0125 -0.05
0.1 0.0125 -0.05
0.1125 0.0125 -0.05
0.125 0.0125 -0.05
0.1375 0.0125 -0.05
0.15 0.0125 -0.05
0.1625 0.0125 -0.05
0.175 0.0125 -0.05
0.1875 0.0125 -0.05
0.2 0.0125 -0.05
0.2125 0.0125 -0.05
0.225 0.0125 -0.05
0.2375 0.0125 -0.05
0.25 0.0125 -0.05
0.2625 0.0125 -0.05
0.275 0.0125 -0.05
0.2875 0.0125 -0.05
0.3 0.0125 -0.05
0.3125 0.0125 -0.05
0.325 0.0125 -0.05
0.3375 0.0125 -0.05
0.35 0.0125 -0.05
0.3625 0.0125 -0.05
0.375 0.0125 -0.05
0.3875 0.0125 -0.05
0.4 0.0125 -0.05
0.4125 0.0125 -0.05
0.425 0.0125 -0.05
0.4375 0.0125 -0.05
0.45 0.0125 -0.05
0.4625 0.0125 -0.05
0.475 0.0125 -0.05
0.4875 0.0125 -0.05
0.5 0.0125 -0.05
0.5125 0.0125 -0.05
0.525 0.0125 -0.05
0.5375 0.0125 -0.05
0.55 0.0125 -0.05
0.5625 0.0125 -0.05
0.575 0.0125 -0.05
0.5875 0.0125 -0.05
0.6 0.0125 -0.05
0.0 0.025 -0.05
0.0125 0.025 -0.05
0.025 0.025 -0.05
0.0375 0.025 -0.05
0.05 0.025 -0.05
0.0625 0.025 -0.05
0.075 0.025 -0.05
0.0875 0.025 -0.05
0.1 0.025 -0.05
0.1125 0.025 -0.05
0.125 0.025 -0.05
0.1375 0.025 -0.05
0.15 0.025 -0.05
0.1625 0.025 -0.05
0.175 0.025 -0.05
0.1875 0.025 -0.05
0.2 0.025 -0.05
0.2125 0.025 -0.05
0.225 0.025 -0.05
0.2375 0.025 -0.05
0.25 0.025 -0.05
0.2625 0.025 -0.05
0.275 0.025 -0.05
0.2875 0.025 -0.05
0.3 0.025 -0.05
0.3125 0.025 -0.05
0.325 0.025 -0.05
0.3375 0.025 -0.05
0.35 0.025 -0.05
0.3625 0.025 -0.05
0.375 0.025 -0.05
0.3875 0.025 -0.05
0.4 0.025 -0.05
0.4125 0.025 -0.05
0.425 0.025 -0.05
0.4375 0.025 -0.05
0.45 0.025 -0.05
0.4625 0.025 -0.05
0.475 0.025 -0.05
0.4875 0.025 -0.05
0.5 0.025 -0.05
0.5125 0.025 -0.05
0.525 0.025 -0.05
0.5375 0.025 -0.05
0.55 0.025 -0.05
0.5625 0.025 -0.05
0.575 0.025 -0.05
0.5875 0.025 -0.05
0.6 0.025 -0.05
0.0 0.0375 -0.05
0.0125 0.0375 -0.05
0.025 0.0375 -0.05
0.0375 0.0375 -0.05
0.05 0.0375 -0.05
0.0625 0.0375 -0.05
0.075 0.0375 -0.05
0.0875 0.0375 -0.05
0.1 0.0375 -0.05
0.1125 0.0375 -0.05
0.125 0.0375 -0.05
0.1375 0.0375 -0.05
0.15 0.0375 -0.05
0.1625 0.0375 -0.05
0.175 0.0375 -0.05
0.1875 0.0375 -0.05
0.2 0.0375 -0.05
0.2125 0.0375 -0.05
0.225 0.0375 -0.05
0.2375 0.0375 -0.05
0.25 0.0375 -0.05
0.2625 0.0375 -0.05
0.275 0.0375 -0.05
0.2875 0.0375 -0.05
0.3 0.0375 -0.05
0.3125 0.0375 -0.05
0.325 0.0375 -0.05
0.3375 0.0375 -0.05
0.35 0.0375 -0.05
0.3625 0.0375 -0.05
0.375 0.0375 -0.05
0.3875 0.0375 -0.05
0.4 0.0375 -0.05
0.4125 0.0375 -0.05
0.425 0.0375 -0.05
0.4375 0.0375 -0.05
0.45 0.0375 -0.05
0.4625 0.0375 -0.05
0.475 0.0375 -0.05
0.4875 0.0375 -0.05
0.5 0.0375 -0.05
0.5125 0.0375 -0.05
0.525 0.0375 -0.05
0.5375 0.0375 -0.05
0.55 0.0375 -0.05
0.5625 0.0375 -0.05
0.575 0.0375 -0.05
0.5875 0.0375 -0.05
0.6 0.0375 -0.05
0.0 0.05 -0.05
0.0125 0.05 -0.05
0.025 0.05 -0.05
0.0375 0.05 -0.05
0.05 0.05 -0.05
0.0625 0.05 -0.05
0.075 0.05 -0.05
0.0875 0.05 -0.05
0.1 0.05 -0.05
0.1125 0.05 -0.05
0.125 0.05 -0.05
0.1375 0.05 -0.05
0.15 0.05 -0.05
0.1625 0.05 -0.05
0.175 0.05 -0.05
0.1875 0.05 -0.05
0.2 0.05 -0.05
0.2125 0.05 -0.05
0.225 0.05 -0.05
0.2375 0.05 -0.05
0.25 0.05 -0.05
0.2625 0.05 -0.05
0.275 0.05 -0.05
0.2875 0.05 -0.05
0.3 0.05 -0.05
0.3125 0.05 -0.05
0.325 0.05 -0.05
0.3375 0.05 -0.05
0.35 0.05 -0.05
0.3625 0.05 -0.05
0.375 0.05 -0.05
0.3875 0.05 -0.05
0.4 0.05 -0.05
0.4125 0.05 -0.05
0.425 0.05 -0.05
0.4375 0.05 -0.05
0.45 0.05 -0.05
0.4625 0.05 -0.05
0.475 0.05 -0.05
0.4875 0.05 -0.05
0.5 0.05 -0.05
0.5125 0.05 -0.05
0.525 0.05 -0.05
0.5375 0.05 -0.05
0.55 0.05 -0.05
0.5625 0.05 -0.05
0.575 0.05 -0.05
0.5875 0.05 -0.05
0.6 0.05 -0.05
0.0 0.0625 -0.05
0.0125 0.0625 -0.05
0.025 0.0625 -0.05
0.0375 0.0625 -0.05
0.05 0.0625 -0.05
0.0625 0.0625 -0.05
0.075 0.0625 -0.05
0.0875 0.0625 -0.05
0.1 0.0625 -0.05
0.1125 0.0625 -0.05
0.125 0.0625 -0.05
0.1375 0.0625 -0.05
0.15 0.0625 -0.05
0.1625 0.0625 -0.05
0.175 0.0625 -0.05
0.1875 0.0625 -0.05
0.2 0.0625 -0.05
0.2125 0.0625 -0.05
0.225 0.0625 -0.05
0.2375 0.0625 -0.05
0.25 0.0625 -0.05
0.2625 0.0625 -0.05
0.275 0.0625 -0.05
0.2875 0.0625 -0.05
0.3 0.0625 -0.05
0.3125 0.0625 -0.05
0.325 0.0625 -0.05
0.3375 0.0625 -0.05
0.35 0.0625 -0.05
0.3625 0.0625 -0.05
0.375 0.0625 -0.05
0.3875 0.0625 -0.05
0.4 0.0625 -0.05
0.4125 0.0625 -0.05
0.425 0.0625 -0.05
0.4375 0.0625 -0.05
0.45 0.0625 -0.05
0.4625 0.0625 -0.05
0.475 0.0625 -0.05
0.4875 0.0625 -0.05
0.5 0.0625 -0.05
0.5125 0.0625 -0.05
0.525 0.0625 -0.05
0.5375 0.0625 -0.05
0.55 0.0625 -0.05
0.5625 0.0625 -0.05
0.575 0.0625 -0.05
0.5875 0.0625 -0.05
0.6 0.0625 -0.05
0.0 0.075 -0.05
0.0125 0.075 -0.05
0.025 0.075 -0.05
0.0375 0.075 -0.05
0.05 0.075 -0.05
0.0625 0.075 -0.05
0.075 0.075 -0.05
0.0875 0.075 -0.05
0.1 0.075 -0.05
0.1125 0.075 -0.05
0.125 0.075 -0.05
0.1375 0.075 -0.05
0.15 0.075 -0.05
0.1625 0.075 -0.05
0.175 0.075 -0.05
0.1875 0.075 -0.05
0.2 0.075 -0.05
0.2125 0.075 -0.05
0.225 0.075 -0.05
0.2375 0.075 -0.05
0.25 0.075 -0.05
0.2625 0.075 -0.05
0.275 0.075 -0.05
0.2875 0.075 -0.05
0.3 0.075 -0.05
0.3125 0.075 -0.05
0.325 0.075 -0.05
0.3375 0.075 -0.05
0.35 0.075 -0.05
0.3625 0.075 -0.05
0.375 0.075 -0.05
0.3875 0.075 -0.05
0.4 0.075 -0.05
0.4125 0.075 -0.05
0.425 0.075 -0.05
0.4375 0.075 -0.05
0.45 0.075 -0.05
0.4625 0.075 -0.05
0.475 0.075 -0.05
0.4875 0.075 -0.05
0.5 0.075 -0.05
0.5125 0.075 -0.05
0.525 0.075 -0.05
0.5375 0.075 -0.05
0.55 0.075 -0.05
0.5625 0.075 -0.05
0.575 0.075 -0.05
0.5875 0.075 -0.05
0.6 0.075 -0.05
0.0 0.0875 -0.05
0.0125 0.0875 -0.05
0.025 0.0875 -0.05
0.0375 0.0875 -0.05
0.05 0.0875 -0.05
0.0625 0.0875 -0.05
0.075 0.0875 -0.05
0.0875 0.0875 -0.05
0.1 0.0875 -0.05
0.1125 0.0875 -0.05
0.125 0.0875 -0.05
0.1375 0.0875 -0.05
0.15 0.0875 -0.05
0.1625 0.0875 -0.05
0.175 0.0875 -0.05
0.1875 0.0875 -0.05
0.2 0.0875 -0.05
0.2125 0.0875 -0.05
0.225 0.0875 -0.05
0.2375 0.0875 -0.05
0.25 0.0875 -0.05
0.2625 0.0875 -0.05
0.275 0.0875 -0.05
0.2875 0.0875 -0.05
0.3 0.0875 -0.05
0.3125 0.0875 -0.05
0.325 0.0875 -0.05
0.3375 0.0875 -0.05
0.35 0.0875 -0.05
0.3625 0.0875 -0.05
0.375 0.0875 -0.05
0.3875 0.0875 -0.05
0.4 0.0875 -0.05
0.4125 0.0875 -0.05
0.425 0.0875 -0.05
0.4375 0.0875 -0.05
0.45 0.0875 -0.05
0.4625 0.0875 -0.05
0.475 0.0875 -0.05
0.4875 0.0875 -0.05
0.5 0.0875 -0.05
0.5125 0.0875 -0.05
0.525 0.0875 -0.05
0.5375 0.0875 -0.05
0.55 0.0875 -0.05
0.5625 0.0875 -0.05
0.575 0.0875 -0.05
0.5875 0.0875 -0.05
0.6 0.0875 -0.05
0.0 0.1 -0.05
0.0125 0.1 -0.05
0.025 0.1 -0.05
0.0375 0.1 -0.05
0.05 0.1 -0.05
0.0625 0.1 -0.05
0.075 0.1 -0.05
0.0875 0.1 -0.05
0.1 0.1 -0.05
0.1125 0.1 -0.05
0.125 0.1 -0.05
0.1375 0.1 -0.05
0.15 0.1 -0.05
0.1625 0.1 -0.05
0.175 0.1 -0.05
0.1875 0.1 -0.05
0.2 0.1 -0.05
0.2125 0.1 -0.05
0.225 0.1 -0.05
0.2375 0.1 -0.05
0.25 0.1 -0.05
0.2625 0.1 -0.05
0.275 0.1 -0.05
0.2875 0.1 -0.05
0.3 0.1 -0.05
0.3125 0.1 -0.05
0.325 0.1 -0.05
0.3375 0.1 -0.05
0.35 0.1 -0.05
0.3625 0.1 -0.05
0.375 0.1 -0.05
0.3875 0.1 -0.05
0.4 0.1 -0.05
0.4125 0.1 -0.05
0.425 0.1 -0.05
0.4375 0.1 -0.05
0.45 0.1 -0.05
0.4625 0.1 -0.05
0.475 0.1 -0.05
0.4875 0.1 -0.05
0.5 0.1 -0.05
0.5125 0.1 -0.05
0.525 0.1 -0.05
0.5375 0.1 -0.05
0.55 0.1 -0.05
0.5625 0.1 -0.05
0.575 0.1 -0.05
0.5875 0.1 -0.05
0.6 0.1 -0.05
0.0 0.1125 -0.05
0.0125 0.1125 -0.05
0.025 0.1125 -0.05
0.0375 0.1125 -0.05
0.05 0.1125 -0.05
0.0625 0.1125 -0.05
0.075 0.1125 -0.05
0.0875 0.1125 -0.05
0.1 0.1125 -0.05
0.1125 0.1125 -0.05
0.125 0.1125 -0.05
0.1375 0.1125 -0.05
0.15 0.1125 -0.05
0.1625 0.1125 -0.05
0.175 0.1125 -0.05
0.1875 0.1125 -0.05
0.2 0.1125 -0.05
0.2125 0.1125 -0.05
0.225 0.1125 -0.05
0.2375 0.1125 -0.05
0.25 0.1125 -0.05
0.2625 0.1125 -0.05
0.275 0.1125 -0.05
0.2875 0.1125 -0.05
0.3 0.1125 -0.05
0.3125 0.1125 -0.05
0.325 0.1125 -0.05
0.3375 0.1125 -0.05
0.35 0.1125 -0.05
0.3625 0.1125 -0.05
0.375 0.1125 -0.05
0.3875 0.1125 -0.05
0.4 0.1125 -0.05
0.4125 0.1125 -0.05
0.425 0.1125 -0.05
0.4375 0.1125 -0.05
0.45 0.1125 -0.05
0.4625 0.1125 -0.05
0.475 0.1125 -0.05
0.4875 0.1125 -0.05
0.5 0.1125 -0.05
0.5125 0.1125 -0.05
0.525 0.1125 -0.05
0.5375 0.1125 -0.05
0.55 0.1125 -0.05
0.5625 0.1125 -0.05
0.575 0.1125 -0.05
0.5875 0.1125 -0.05
0.6 0.1125 -0.05
0.0 0.125 -0.05
0.0125 0.125 -0.05
0.025 0.125 -0.05
0.0375 0.125 -0.05
0.05 0.125 -0.05
0.0625 0.125 -0.05
0.075 0.125 -0.05
0.0875 0.125 -0.05
0.1 0.125 -0.05
0.1125 0.125 -0.05
0.125 0.125 -0.05
0.1375 0.125 -0.05
0.15 0.125 -0.05
0.1625 0.125 -0.05
0.175 0.125 -0.05
0.1875 0.125 -0.05
0.2 0.125 -0.05
0.2125 0.125 -0.05
0.225 0.125 -0.05
0.2375 0.125 -0.05
0.25 0.125 -0.05
0.2625 0.125 -0.05
0.275 0.125 -0.05
0.2875 0.125 -0.05
0.3 0.125 -0.05
0.3125 0.125 -0.05
0.325 0.125 -0.05
0.3375 0.125 -0.05
0.35 0.125 -0.05
0.3625 0.125 -0.05
0.375 0.125 -0.05
0.3875 0.125 -0.05
0.4 0.125 -0.05
0.4125 0.125 -0.05
0.425 0.125 -0.05
0.4375 0.125 -0.05
0.45 0.125 -0.05
0.4625 0.125 -0.05
0.475 0.125 -0.05
0.4875 0.125 -0.05
0.5 0.125 -0.05
0.5125 0.125 -0.05
0.525 0.125 -0.05
0.5375 0.125 -0.05
0.55 0.125 -0.05
0.5625 0.125 -0.05
0.575 0.125 -0.05
0.5875 0.125 -0.05
0.6 0.125 -0.05
0.0 0.1375 -0.05
0.0125 0.1375 -0.05
0.025 0.1375 -0.05
0.0375 0.1375 -0.05
0.05 0.1375 -0.05
0.0625 0.1375 -0.05
0.075 0.1375 -0.05
0.0875 0.1375 -0.05
[...]
CELL_DATA 16128
SCALARS P float 1
LOOKUP_TABLE default
100000.00000001263
99999.99999996257
100000.00000010453
99999.99999970301
100000.00000083735
99999.9999976333
100000.00000667232
99999.99998120031
100000.00005291084
99999.99985121877
100000.00041796731
99999.99882686317
100000.00328979583
99999.99078260371
100000.0258027595
99999.9278327861
100000.20166077158
99999.43701720303
100001.56981580639
99995.63537281106
100011.89590933917
99973.0763564159
99916.25735975243
104525.96053933345
186449.5195287109
432702.8646375713
751849.631604482
961923.9913724804
1.0334928215565736e6
1.053827601668206e6
1.0662476997794372e6
1.0776762636418927e6
1.088651813226906e6
1.0991732140612719e6
1.1092236832773697e6
1.118790539716139e6
1.12785954348711e6
1.13641246647254e6
1.1444231309226677e6
1.1518639920526186e6
1.1586855562206784e6
1.1648780822198384e6
1.1702934068144562e6
1.1751763008420279e6
1.17860078927961e6
1.183113834707706e6
1.1809549946888057e6
1.1949574193291399e6
100000.0000000119
99999.9999999647
100000.00000009853
99999.99999971977
100000.000000791
99999.99999776362
100000.00000630978
99999.99998220819
100000.00005011207
99999.99985897644
100000.00039651197
99999.99888604823
100000.00312706186
99999.99122826655
100000.02458842169
99999.93112025771
100000.19283569738
99999.46044329663
100001.50858583197
99995.79173960882
100011.51765042049
99973.73240997878
99920.81292584854
104341.75718970098
185278.08928620483
431417.39342622936
753289.5647248343
967255.2336651556
1.0411407847026446e6
1.0624483523607277e6
1.0753575058183528e6
1.0870894863521438e6
1.0982927914249252e6
1.1090177851198856e6
1.1192713295317083e6
1.12905002117109e6
1.1383415232253545e6
1.1471255915875512e6
1.1553716998304785e6
1.1630461863137686e6
1.1700920537065738e6
1.1764903099041067e6
1.1820830870960553e6
1.1871029302853653e6
1.190614385393319e6
1.1951635207522342e6
1.1929276967423912e6
1.2071347488199864e6
100000.0000000103
99999.99999996978
100000.00000008447
99999.9999997583
100000.0000006824
99999.99999806662
100000.00000546472
99999.99998456426
100000.00004355068
99999.99987723025
100000.00034578833
99999.99902682773
100000.00273683654
99999.99230848471
100000.02160227737
99999.93936385021
100000.17010761755
99999.52303794162
100001.33634368327
99996.26506167246
100010.23401542398
99976.78273367241
99925.06499945976
103939.15559673181
182044.83789779193
424686.0963887859
746017.1319040073
962175.6728273774
1.0375699092197926e6
1.0590973212221374e6
1.0718919195020515e6
1.0834673556166328e6
1.0945034553868682e6
1.1050504021211371e6
1.1151141578915396e6
1.124691855468953e6
1.1337727510488806e6
1.142338877490576e6
1.150362639510227e6
1.1578136862827593e6
1.1646396638932938e6
1.1708252718121298e6
1.1762224053567916e6
1.1810605917243294e6
1.1844371927857732e6
1.188848990487698e6
1.186546166917113e6
1.200945869074928e6
100000.00000000783
99999.99999997676
100000.00000006502
99999.99999981368
100000.0000005284
99999.99999849782
100000.00000425913
99999.99998793293
100000.00003414537
99999.99990347106
100000.00027263252
99999.99923062298
100000.00216955494
99999.9938863176
100000.01721716092
99999.95154152768
100000.13631521793
99999.61674106678
100001.07674533196
99996.98278419672
100008.27849617993
99981.45612476322
99931.22971043145
103349.80889326619
177026.079905898
414233.83228739124
735461.2917699773
956345.5576764871
1.0350837337582874e6
1.0574661751094896e6
1.0703986118274748e6
1.0819920326425703e6
1.0930158322408383e6
1.1035373544726444e6
1.1135706819383977e6
1.1231185635340258e6
1.1321744862487502e6
1.1407237688857839e6
1.1487415083212962e6
1.1561990865853957e6
1.1630458828779515e6
1.1692649320113116e6
1.1747113147061942e6
1.179598966893328e6
1.1830482231128693e6
1.1874898097801937e6
1.185208613982093e6
1.199983237728227e6
100000.00000000486
99999.99999998519
100000.0000000415
99999.99999988005
100000.00000034274
99999.99999901844
100000.00000280018
99999.99999201873
100000.00002270819
99999.99993547249
100000.00018313767
99999.99948077554
100000.00147071002
99999.99583758775
100000.01177209252
99999.96672683429
100000.09399424528
99999.73460117653
100000.74884543849
99997.8929928858
100005.7881096233
99987.45902704244
99938.40572310914
102644.54208277958
170459.76250498975
400139.8413340275
720956.8712375523
948152.3834745672
1.0314390389484063e6
1.0548835294630534e6
1.0678582916523356e6
1.0793484726535822e6
1.0902450446769758e6
1.1006288516407767e6
1.1105177258010649e6
1.119917380474782e6
1.128824096698964e6
1.1372258373127633e6
1.1451003602419856e6
1.1524212141243848e6
1.1591406700206285e6
1.165241520397808e6
1.170585635893248e6
1.1753732631276806e6
1.1787592473099004e6
1.1831076168491442e6
1.1807576398781978e6
1.195943359984116e6
100000.00000000178
99999.99999999454
100000.00000001611
99999.99999995134
100000.00000014198
99999.99999958227
100000.00000121734
99999.99999646285
100000.00001023545
99999.99997046971
100000.00008496693
99999.99975607594
100000.000698916
99999.99800058948
100000.00571223085
99999.98369772843
100000.04648665233
99999.86752765202
100000.37717936438
99998.9302792186
100002.93141728612
99994.44396665155
99945.10532285263
101905.96711266544
162657.78308598706
382628.796333365
702413.7417028777
937507.8599246457
1.0268554652450439e6
1.051803462678388e6
1.0648619059105073e6
1.0762296838725812e6
1.086974924726384e6
1.0971972118002616e6
1.1069186226598353e6
1.1161483423543004e6
1.1248861276875215e6
1.1331233418625372e6
1.1408411768174586e6
1.1480160204369784e6
1.15460361776185e6
1.1605865985529365e6
1.1658338242285964e6
1.170530343414569e6
1.1738660928870363e6
1.1781369379244226e6
1.1757177672161597e6
1.1914355419558622e6
99999.99999999863
100000.0000000033
99999.9999999912
100000.00000002157
99999.99999994482
100000.00000013705
99999.9999996565
100000.0000008554
99999.99999787717
100000.00000523821
99999.99998715545
100000.0000312276
99999.99992492599
100000.0001776996
99999.9995886514
100000.0009206551
99999.99804948545
100000.00373813453
99999.99424016532
100000.00548177167
99999.94843641599
100001.85666946688
99950.02973846493
101214.2830084889
153991.99988356762
362001.0545340304
679696.4644327691
924053.2768273038
1.0211092696279839e6
1.0480998600127979e6
1.0612887906063756e6
1.0724956214789378e6
1.0830406925126854e6
1.0930499443974574e6
1.1025496126155523e6
1.1115519426231277e6
1.1200599841364615e6
1.1280685275354518e6
1.1355624236580434e6
1.142521324275977e6
1.1489051540915072e6
1.154697379186415e6
1.1597755172596534e6
1.164311475823895e6
1.1675340504422355e6
1.17167676710664e6
1.1691356145512636e6
1.185494949305295e6
99999.99999999568
100000.00000001107
99999.99999996937
100000.00000008392
99999.99999976983
100000.0000006311
99999.99999826474
100000.00000477795
99999.9999868186
100000.00003641788
99999.99989922636
100000.00027924772
99999.99922516891
100000.00215250875
99999.99401382453
100000.01666326134
99999.9535792352
100000.12940342244
99999.63904827996
100001.00869573932
99997.14491101692
100008.93347312923
99952.55884000161
100635.1268597657
144882.2418510109
338650.7896637027
652706.0253320487
907400.1527161049
1.0139932202802435e6
1.0437328100379893e6
1.0571459073874708e6
1.068165330283115e6
1.078466906099503e6
1.088215438051178e6
1.097441957339611e6
1.1061614766046414e6
1.1143801631991e6
1.1220962525190352e6
1.1292984913394263e6
1.1359703144050173e6
1.1420766758166486e6
1.1476032561015133e6
1.1524380339233184e6
1.1567427399374074e6
1.1597877588448508e6
1.1637524916113082e6
1.1610313327982351e6
1.1781765103917117e6
99999.99999999352
100000.00000001735
99999.99999995204
100000.00000013248
99999.99999963246
100000.00000101836
99999.99999717278
100000.00000785904
99999.9999781246
100000.00006095986
99999.99982991866
100000.00047507139
99999.99867158405
100000.0037184212
99999.98958139558
100000.02921878369
99999.91798553156
100000.2303937459
99999.35228174635
100001.82286343633
99994.85504333407
100014.78691924561
99953.11802635601
100209.411280967
135777.82571458342
313079.3144778403
621399.9632269179
887099.3136152629
1.0052314482624029e6
1.0386332890350939e6
1.0524195939573913e6
1.063232024647302e6
1.0732443254310966e6
1.082679431120544e6
1.0915744340668817e6
1.0999465262740357e6
1.1078043320670966e6
1.1151489775300755e6
1.1219727118859873e6
1.1282626276081093e6
1.1339888881563616e6
1.1391402435522603e6
1.1436163735381518e6
1.147572217059937e6
1.1503229522834995e6
1.1540071012316043e6
1.1509959703405243e6
1.1690902891155255e6
99999.99999999243
100000.00000002125
99999.99999994106
100000.00000016394
99999.99999954438
100000.00000126706
99999.99999647222
100000.0000098318
99999.99997256753
100000.00007662414
99999.99978573863
100000.00059977024
99999.99831931626
100000.00471453185
99999.98676157006
100000.03721109057
99999.89530182078
100000.2948698642
99999.16874038367
100002.34561078533
99993.37907671178
100018.5699163968
99953.20527402184
99947.4598503259
127130.32970770747
285907.138080112
585831.1795827497
862654.0309137848
994470.9149641374
1.0327109955838689e6
1.0470995372157979e6
1.0576978849759828e6
1.0673744434369733e6
1.0764397387230294e6
1.0849393179911675e6
1.0928917003007908e6
1.1003067764454538e6
1.1071873610134383e6
1.1135281061817715e6
1.1193189854435695e6
1.1245351043869846e6
1.1291692411660166e6
1.13313478047692e6
1.136585698020473e6
1.138887739807589e6
1.1421573567605466e6
1.138716363162972e6
1.1579815125165938e6
99999.9999999917
100000.00000002289
99999.99999993655
100000.00000017675
99999.99999950937
100000.00000136456
99999.99999620196
100000.00001058233
99999.99997048372
100000.00008240905
99999.99976967378
100000.00064441231
99999.99819514398
100000.00506036465
99999.98579677344
100000.03990830654
99999.88774220481
100000.31612065647
99999.10880574519
100002.51493144516
99992.9065322382
100019.69772793674
99954.9096747271
99829.7002504465
119356.54385711397
257878.0439231381
546193.4626855929
833541.2794651038
981260.754220544
1.0258384642820442e6
1.041172023564159e6
1.051569066287259e6
1.0608637681520774e6
1.0694991140715827e6
1.077533410384849e6
1.084985315512246e6
1.0918639635011258e6
1.098171454173369e6
1.1039020543705013e6
1.1090454504402466e6
1.1135779819041311e6
1.1174924918927753e6
1.1207111812656177e6
1.1233845286410414e6
1.1249263762790451e6
1.1274537127368627e6
1.123224977701008e6
1.1438380966804258e6
99999.99999999197
100000.00000002242
99999.99999993798
100000.00000017142
99999.99999952468
100000.0000013186
99999.9999963386
100000.00001017402
99999.99997170121
100000.00007878336
99999.99978046054
100000.00061235711
99999.99829028036
100000.00477841076
99999.98663114037
100000.03744314298
99999.89501339778
100000.29471114738
99999.1717297379
100002.33021425993
99993.44947365331
100018.06426112088
99960.10509685041
99814.73243373272
112793.60219087882
229850.08136710065
502871.0472477705
799249.9327884326
965034.727440118
1.0178332017890315e6
1.0346156601780622e6
1.0448563777893867e6
1.0537262748111044e6
1.061868958767551e6
1.069363161383748e6
1.0762263175616537e6
1.0824639307754312e6
1.0880738253472478e6
1.0930457352302535e6
1.0973645887985365e6
1.101003692297968e6
1.1039533286878031e6
1.1061442772735257e6
1.107734726891261e6
1.1081993083745213e6
1.109697904302534e6
1.104398023164765e6
1.1267823920590943e6
99999.99999999287
100000.00000001995
99999.99999994469
100000.0000001518
99999.99999958076
100000.00000115727
99999.99999680341
100000.00000883467
99999.99997556505
100000.00006762281
99999.99981272581
100000.00051899487
99999.99856066144
100000.0039947415
99999.9889042626
100000.03084486992
99999.91417975478
100000.23900075712
99999.33376090736
100001.8587007635
99994.82056657756
100014.13092454596
99969.41897550291
99853.29545772428
107652.85967396415
202768.10331806884
456486.45323679695
759338.8097621585
945099.1572819602
1.0084335374282735e6
1.0273936641852879e6
1.0375741918799443e6
1.0459841758581216e6
1.0535709261764446e6
1.0604470021727635e6
1.0666272774159128e6
1.0721094735996556e6
1.0768812978051505e6
1.0809198643474292e6
1.0841939070926975e6
1.086656882789284e6
1.0882710255869317e6
1.0889384621414142e6
1.088763940096617e6
1.0872073925821653e6
1.0864231228310643e6
1.0784485903803792e6
1.1020324322102182e6
99999.99999999395
100000.00000001631
99999.99999995496
100000.00000012289
99999.99999966317
100000.00000092176
99999.99999747582
100000.00000691098
99999.99998107605
100000.00005181975
99999.99985809524
100000.0003885901
99999.99893592295
100000.00291358217
99999.99202291908
100000.0218379634
99999.9402246814
100000.16359235095
99999.55237106571
100001.22422295285
99996.66124829257
100008.87964461307
99981.70304450502
99903.38602998327
103984.13081542957
177612.36172934875
407938.52112973086
713516.7591265994
920632.9576790999
997267.7644802213
1.0194420573103771e6
1.0297382513743762e6
1.0376685532648549e6
1.0446388282020201e6
1.0508186744409814e6
1.056220056604996e6
1.0608281393904823e6
1.0646136784314446e6
1.0675322223490605e6
1.0695252484285561e6
1.0705156457165617e6
1.070428735156539e6
1.0691379587455983e6
1.0667374486115868e6
1.0627517747834183e6
1.0594606643164079e6
1.048862459829972e6
1.0752819277561607e6
99999.99999999543
100000.00000001208
99999.99999996644
100000.00000009009
99999.9999997557
100000.00000065916
99999.9999982214
100000.00000479173
99999.99998710523
100000.00003464794
99999.9999070612
100000.00024879863
99999.99933549922
100000.00177000111
99999.99530013598
100000.01243339888
99999.96725147903
100000.08580626847
99999.77659789029
100000.57692487794
99998.52983531456
100003.56975323537
99994.38616719162
99940.667877343
101665.14944369171
155318.03487786357
358419.878546
661743.9105261613
890709.3352160095
983817.0600352843
1.0106518269045795e6
1.021361406353016e6
1.028819129441525e6
1.0351196830252667e6
1.0405290241023768e6
1.0450580358229637e6
1.0486735900268145e6
1.0513197130783037e6
1.0529145436740096e6
1.053346359039027e6
1.0524575021442717e6
1.050052925404986e6
1.0458092341974989e6
1.0394759586799347e6
1.0300274851963893e6
1.0188596048753625e6
996536.1875443725
1.01454427604636e6
99999.99999999687
100000.00000000816
99999.99999997753
100000.00000005889
99999.99999984384
100000.00000041148
99999.9999989184
100000.00000282889
99999.99999263664
100000.00001904434
99999.99995111092
100000.00012433252
99999.99968750583
100000.00077352732
99999.998123842
100000.00442326914
99999.99000029436
100000.02111974447
99999.96077766691
100000.05186561546
100000.02644263244
99999.36632543027
100004.5232317806
99959.95143615187
100428.5978393487
136663.7006665021
309400.7737966548
604347.8094253459
854351.8626124635
967375.6905485177
1.0008429948554244e6
1.0124463158904148e6
1.0194830414160859e6
1.0250744579483409e6
1.0296484133647928e6
1.0332217646108031e6
1.0357387778194472e6
1.0371086787097425e6
1.0371999290661082e6
1.0358326949479668e6
1.0327577320687658e6
1.027655959574549e6
1.0200614776163201e6
1.009593861314811e6
995260.7930871574
978781.8221003974
951039.005115594
974120.8519944102
99999.999999998
100000.00000000474
99999.99999998698
100000.00000003258
99999.99999991669
100000.00000020943
99999.99999947984
100000.00000126965
99999.99999696632
100000.00000702229
99999.99998448511
100000.00003170203
99999.9999445298
100000.00006060321
100000.00010048694
99999.99894560549
100000.0051709859
99999.9791325689
100000.07688964576
99999.73112861473
100000.9098293591
99996.97698711172
100010.0533537431
99968.27256973168
99928.14457591811
122137.870884023
262565.32456992305
542139.189067042
810637.966210335
947016.3041398728
989728.2470674436
1.0029733933886467e6
1.0097115757100502e6
1.0145769127399942e6
1.0182657391002034e6
1.0208169591939364e6
1.0221499613327049e6
1.0221302915799665e6
1.0205609505828813e6
1.0171633526550878e6
1.011523493622766e6
1.003029845280669e6
990652.5739955023
972812.4887584597
945819.0546635437
904771.2364150559
826151.6479275271
697704.7112708692
99999.99999999898
100000.00000000246
99999.99999999416
100000.00000001332
99999.99999996902
100000.00000006724
99999.99999986589
100000.0000002229
99999.99999979822
99999.99999938274
100000.0000050268
99999.99997668479
100000.00009118984
99999.99967187764
100000.00112361986
99999.99627608222
100000.01205965587
99999.96160956149
100000.12061557699
99999.62493179456
100001.15688242776
99996.45655416719
100010.64272802083
99974.82529466283
99826.61547772393
111815.65820008675
219688.9948022198
476501.61634966853
758857.9173862388
921573.5623813666
976863.8876376966
992881.6449137869
999554.1926183255
1.0037111143785585e6
1.0064869687120856e6
1.0079747819888014e6
1.0080730452127494e6
1.0066007349899039e6
1.0032967489122496e6
997779.9449398327
989479.225526269
977531.4507902263
960502.7918414056
936169.782966538
899989.1622418901
846027.3704810054
754823.8747647895
618295.7145547351
99999.99999999949
100000.00000000038
99999.99999999859
100000.00000000153
100000.00000000026
99999.99999998466
100000.00000008098
99999.99999966669
100000.00000122043
99999.99999579463
100000.00001391822
99999.99995518709
100000.00014135308
99999.99956111662
100000.00134552826
99999.99591770835
100000.01227659678
99999.96336249732
100000.10859857718
99999.68007633675
100000.93697498275
99997.27621032126
100007.68341411876
99984.09766575646
99872.44892388552
105302.39284435888
182452.14313443532
409422.32694422384
698727.0674949462
889666.623617578
961587.4939450192
982038.9147602319
989048.1241421822
992566.1335471844
994429.6315731999
994843.8328223475
993697.5484634838
990774.2745918
985756.851822694
978187.6677218078
967390.5463512634
952366.4536118486
931533.978355125
902570.5078375916
861238.0613585132
802604.440416899
713606.5280347179
592772.5394726654
100000.0
99999.99999999955
100000.00000000097
99999.9999999957
100000.00000001481
99999.99999995006
100000.00000016142
99999.99999948886
100000.00000158304
99999.99999517376
100000.00001451328
99999.99995684782
100000.000127001
99999.99962967297
100000.00107040233
99999.99693251564
100000.00871468823
99999.97546501074
100000.06840089767
99999.81139275544
100000.51330326854
99998.62915859617
100003.45882864932
99994.70521292451
99931.25722836463
101800.18377178843
152191.53397330956
343431.0677329327
630633.8625767347
849790.5752943722
942947.7797740896
970197.9168280654
978201.9389973492
981227.9136082121
982214.9349870072
981577.5147292865
979220.3969501657
974905.6709268633
968280.6072271458
958845.3041771607
945881.8634373468
928367.9434337156
904772.8906903282
872991.4768972532
829553.0264150013
770905.490788497
689058.5658993494
585606.6555268916
100000.00000000019
99999.99999999946
100000.00000000173
99999.99999999424
100000.00000001758
99999.9999999468
100000.00000015667
99999.99999953996
100000.0000013306
99999.99999618798
100000.00001079963
99999.99996972572
100000.0000838991
99999.99977037057
100000.00061960056
99999.9983562108
100000.00427005075
99999.98920984949
100000.02623277644
99999.93987996208
100000.12418645463
99999.79931870596
100000.02452868444
100002.8355172499
99964.23559202082
100307.24153600147
129610.56981807409
281418.01990958664
555881.354239817
800511.6811554763
919643.6728161987
956935.1826486522
966971.1086526054
969768.5735055093
969959.2427540206
968323.5641885792
964826.4857622017
959226.5106675072
951158.4616830125
940114.3862942668
925388.7402686086
906017.2836580382
880635.7524143818
847487.7995841387
803942.510334021
747634.6845135726
673990.1579621483
585395.8052546389
100000.00000000033
99999.99999999937
100000.00000000173
99999.99999999498
100000.00000001416
99999.999999959
100000.00000011359
99999.99999968545
100000.00000085695
99999.99999769476
100000.00000609289
99999.99998421017
100000.0000398806
99999.99990268954
100000.00022575914
99999.9995176532
100000.0008756429
99999.99904063088
99999.99803048109
100000.0199528045
99999.89953705252
100000.41941653244
99998.38309602647
100006.11675203904
99978.89094181034
99884.8828510564
114527.11410794535
226315.7595584256
476846.7486308433
740787.1421618952
890003.5651985599
941571.1176674394
955222.1199585656
958232.172402564
957764.9531888204
955215.8926069614
950677.2994570477
943929.5596398712
934616.0663555525
922248.9400691985
906173.0130517144