# vtk DataFile Version 2.0
JuliaCFD
ASCII
DATASET UNSTRUCTURED_GRID

POINTS 32898 float
0.0 0.0 -0.05
0.0125 0.0 -0.05
0.025 0.0 -0.05
0.0375 0.0 -0.05
0.05 0.0 -0.05
0.0625 0.0 -0.05
0.075 0.0 -0.05
0.0875 0.0 -0.05
0.1 0.0 -0.05
0.1125 0.0 -0.05
0.125 0.0 -0.05
0.1375 0.0 -0.05
0.15 0.0 -0.05
0.1625 0.0 -0.05
0.175 0.0 -0.05
0.1875 0.0 -0.05
0.2 0.0 -0.05
0.2125 0.0 -0.05
0.225 0.0 -0.05
0.2375 0.0 -0.05
0.25 0.0 -0.05
0.2625 0.0 -0.05
0.275 0.0 -0.05
0.2875 0.0 -0.05
0.3 0.0 -0.05
0.3125 0.0 -0.05
0.325 0.0 -0.05
0.3375 0.0 -0.05
0.35 0.0 -0.05
0.3625 0.0 -0.05
0.375 0.0 -0.05
0.3875 0.0 -0.05
0.4 0.0 -0.05
0.4125 0.0 -0.05
0.425 0.0 -0.05
0.4375 0.0 -0.05
0.45 0.0 -0.05
0.4625 0.0 -0.05
0.475 0.0 -0.05
0.4875 0.0 -0.05
0.5 0.0 -0.05
0.5125 0.0 -0.05
0.525 0.0 -0.05
0.5375 0.0 -0.05
0.55 0.0 -0.05
0.5625 0.0 -0.05
0.575 0.0 -0.05
0.5875 0.0 -0.05
0.6 0.0 -0.05
0.0 0.0125 -0.05
0.0125 0.0125 -0.05
0.025 0.0125 -0.05
0.0375 0.0125 -0.05
0.05 0.0125 -0.05
0.0625 0.0125 -0.05
0.075 0.0125 -0.05
0.0875 0.0125 -0.05
0.1 0.0125 -0.05
0.1125 0.0125 -0.05
0.125 0.0125 -0.05
0.1375 0.0125 -0.05
0.15 0.0125 -0.05
0.1625 0.0125 -0.05
0.175 0.0125 -0.05
0.1875 0.0125 -0.05
0.2 0.0125 -0.05
0.2125 0.0125 -0.05
0.225 0.0125 -0.05
0.2375 0.0125 -0.05
0.25 0.0125 -0.05
0.2625 0.0125 -0.05
0.275 0.0125 -0.05
0.2875 0.0125 -0.05
0.3 0.0125 -0.05
0.3125 0.0125 -0.05
0.325 0.0125 -0.05
0.3375 0.0125 -0.05
0.35 0.0125 -0.05
0.3625 0.0125 -0.05
0.375 0.0125 -0.05
0.3875 0.0125 -0.05
0.4 0.0125 -0.05
0.4125 0.0125 -0.05
0.425 0.0125 -0.05
0.4375 0.0125 -0.05
0.45 0.0125 -0.05
0.4625 0.0125 -0.05
0.475 0.0125 -0.05
0.4875 0.0125 -0.05
0.5 0.0125 -0.05
0.5125 0.0125 -0.05
0.525 0.0125 -0.05
0.5375 0.0125 -0.05
0.55 0.0125 -0.05
0.5625 0.0125 -0.05
0.575 0.0125 -0.05
0.5875 0.0125 -0.05
0.6 0.0125 -0.05
0.0 0.025 -0.05
0.0125 0.025 -0.05
0.025 0.025 -0.05
0.0375 0.025 -0.05
0.05 0.025 -0.05
0.0625 0.025 -0.05
0.075 0.025 -0.05
0.0875 0.025 -0.05
0.1 0.025 -0.05
0.1125 0.025 -0.05
0.125 0.025 -0.05
0.1375 0.025 -0.05
0.15 0.025 -0.05
0.1625 0.025 -0.05
0.175 0.025 -0.05
0.1875 0.025 -0.05
0.2 0.025 -0.05
0.2125 0.025 -0.05
0.225 0.025 -0.05
0.2375 0.025 -0.05
0.25 0.025 -0.05
0.2625 0.025 -0.05
0.275 0.025 -0.05
0.2875 0.025 -0.05
0.3 0.025 -0.05
0.3125 0.025 -0.05
0.325 0.025 -0.05
0.3375 0.025 -0.05
0.35 0.025 -0.05
0.3625 0.025 -0.05
0.375 0.025 -0.05
0.3875 0.025 -0.05
0.4 0.025 -0.05
0.4125 0.025 -0.05
0.425 0.025 -0.05
0.4375 0.025 -0.05
0.45 0.025 -0.05
0.4625 0.025 -0.05
0.475 0.025 -0.05
0.4875 0.025 -0.05
0.5 0.025 -0.05
0.5125 0.025 -0.05
0.525 0.025 -0.05
0.5375 0.025 -0.05
0.55 0.025 -0.05
0.5625 0.025 -0.05
0.575 0.025 -0.05
0.5875 0.025 -0.05
0.6 0.025 -0.05
0.0 0.0375 -0.05
0.0125 0.0375 -0.05
0.025 0.0375 -0.05
0.0375 0.0375 -0.05
0.05 0.0375 -0.05
0.0625 0.0375 -0.05
0.075 0.0375 -0.05
0.0875 0.0375 -0.05
0.1 0.0375 -0.05
0.1125 0.0375 -0.05
0.125 0.0375 -0.05
0.1375 0.0375 -0.05
0.15 0.0375 -0.05
0.1625 0.0375 -0.05
0.175 0.0375 -0.05
0.1875 0.0375 -0.05
0.2 0.0375 -0.05
0.2125 0.0375 -0.05
0.225 0.0375 -0.05
0.2375 0.0375 -0.05
0.25 0.0375 -0.05
0.2625 0.0375 -0.05
0.275 0.0375 -0.05
0.2875 0.0375 -0.05
0.3 0.0375 -0.05
0.3125 0.0375 -0.05
0.325 0.0375 -0.05
0.3375 0.0375 -0.05
0.35 0.0375 -0.05
0.3625 0.0375 -0.05
0.375 0.0375 -0.05
0.3875 0.0375 -0.05
0.4 0.0375 -0.05
0.4125 0.0375 -0.05
0.425 0.0375 -0.05
0.4375 0.0375 -0.05
0.45 0.0375 -0.05
0.4625 0.0375 -0.05
0.475 0.0375 -0.05
0.4875 0.0375 -0.05
0.5 0.0375 -0.05
0.5125 0.0375 -0.05
0.525 0.0375 -0.05
0.5375 0.0375 -0.05
0.55 0.0375 -0.05
0.5625 0.0375 -0.05
0.575 0.0375 -0.05
0.5875 0.0375 -0.05
0.6 0.0375 -0.05
0.0 0.05 -0.05
0.0125 0.05 -0.05
0.025 0.05 -0.05
0.0375 0.05 -0.05
0.05 0.05 -0.05
0.0625 0.05 -0.05
0.075 0.05 -0.05
0.0875 0.05 -0.05
0.1 0.05 -0.05
0.1125 0.05 -0.05
0.125 0.05 -0.05
0.1375 0.05 -0.05
0.15 0.05 -0.05
0.1625 0.05 -0.05
0.175 0.05 -0.05
0.1875 0.05 -0.05
0.2 0.05 -0.05
0.2125 0.05 -0.05
0.225 0.05 -0.05
0.2375 0.05 -0.05
0.25 0.05 -0.05
0.2625 0.05 -0.05
0.275 0.05 -0.05
0.2875 0.05 -0.05
0.3 0.05 -0.05
0.3125 0.05 -0.05
0.325 0.05 -0.05
0.3375 0.05 -0.05
0.35 0.05 -0.05
0.3625 0.05 -0.05
0.375 0.05 -0.05
0.3875 0.05 -0.05
0.4 0.05 -0.05
0.4125 0.05 -0.05
0.425 0.05 -0.05
0.4375 0.05 -0.05
0.45 0.05 -0.05
0.4625 0.05 -0.05
0.475 0.05 -0.05
0.4875 0.05 -0.05
0.5 0.05 -0.05
0.5125 0.05 -0.05
0.525 0.05 -0.05
0.5375 0.05 -0.05
0.55 0.05 -0.05
0.5625 0.05 -0.05
0.575 0.05 -0.05
0.5875 0.05 -0.05
0.6 0.05 -0.05
0.0 0.0625 -0.05
0.0125 0.0625 -0.05
0.025 0.0625 -0.05
0.0375 0.0625 -0.05
0.05 0.0625 -0.05
0.0625 0.0625 -0.05
0.075 0.0625 -0.05
0.0875 0.0625 -0.05
0.1 0.0625 -0.05
0.1125 0.0625 -0.05
0.125 0.0625 -0.05
0.1375 0.0625 -0.05
0.15 0.0625 -0.05
0.1625 0.0625 -0.05
0.175 0.0625 -0.05
0.1875 0.0625 -0.05
0.2 0.0625 -0.05
0.2125 0.0625 -0.05
0.225 0.0625 -0.05
0.2375 0.0625 -0.05
0.25 0.0625 -0.05
0.2625 0.0625 -0.05
0.275 0.0625 -0.05
0.2875 0.0625 -0.05
0.3 0.0625 -0.05
0.3125 0.0625 -0.05
0.325 0.0625 -0.05
0.3375 0.0625 -0.05
0.35 0.0625 -0.05
0.3625 0.0625 -0.05
0.375 0.0625 -0.05
0.3875 0.0625 -0.05
0.4 0.0625 -0.05
0.4125 0.0625 -0.05
0.425 0.0625 -0.05
0.4375 0.0625 -0.05
0.45 0.0625 -0.05
0.4625 0.0625 -0.05
0.475 0.0625 -0.05
0.4875 0.0625 -0.05
0.5 0.0625 -0.05
0.5125 0.0625 -0.05
0.525 0.0625 -0.05
0.5375 0.0625 -0.05
0.55 0.0625 -0.05
0.5625 0.0625 -0.05
0.575 0.0625 -0.05
0.5875 0.0625 -0.05
0.6 0.0625 -0.05
0.0 0.075 -0.05
0.0125 0.075 -0.05
0.025 0.075 -0.05
0.0375 0.075 -0.05
0.05 0.075 -0.05
0.0625 0.075 -0.05
0.075 0.075 -0.05
0.0875 0.075 -0.05
0.1 0.075 -0.05
0.1125 0.075 -0.05
0.125 0.075 -0.05
0.1375 0.075 -0.05
0.15 0.075 -0.05
0.1625 0.075 -0.05
0.175 0.075 -0.05
0.1875 0.075 -0.05
0.2 0.075 -0.05
0.2125 0.075 -0.05
0.225 0.075 -0.05
0.2375 0.075 -0.05
0.25 0.075 -0.05
0.2625 0.075 -0.05
0.275 0.075 -0.05
0.2875 0.075 -0.05
0.3 0.075 -0.05
0.3125 0.075 -0.05
0.325 0.075 -0.05
0.3375 0.075 -0.05
0.35 0.075 -0.05
0.3625 0.075 -0.05
0.375 0.075 -0.05
0.3875 0.075 -0.05
0.4 0.075 -0.05
0.4125 0.075 -0.05
0.425 0.075 -0.05
0.4375 0.075 -0.05
0.45 0.075 -0.05
0.4625 0.075 -0.05
0.475 0.075 -0.05
0.4875 0.075 -0.05
0.5 0.075 -0.05
0.5125 0.075 -0.05
0.525 0.075 -0.05
0.5375 0.075 -0.05
0.55 0.075 -0.05
0.5625 0.075 -0.05
0.575 0.075 -0.05
0.5875 0.075 -0.05
0.6 0.075 -0.05
0.0 0.0875 -0.05
0.0125 0.0875 -0.05
0.025 0.0875 -0.05
0.0375 0.0875 -0.05
0.05 0.0875 -0.05
0.0625 0.0875 -0.05
0.075 0.0875 -0.05
0.0875 0.0875 -0.05
0.1 0.0875 -0.05
0.1125 0.0875 -0.05
0.125 0.0875 -0.05
0.1375 0.0875 -0.05
0.15 0.0875 -0.05
0.1625 0.0875 -0.05
0.175 0.0875 -0.05
0.1875 0.0875 -0.05
0.2 0.0875 -0.05
0.2125 0.0875 -0.05
0.225 0.0875 -0.05
0.2375 0.0875 -0.05
0.25 0.0875 -0.05
0.2625 0.0875 -0.05
0.275 0.0875 -0.05
0.2875 0.0875 -0.05
0.3 0.0875 -0.05
0.3125 0.0875 -0.05
0.325 0.0875 -0.05
0.3375 0.0875 -0.05
0.35 0.0875 -0.05
0.3625 0.0875 -0.05
0.375 0.0875 -0.05
0.3875 0.0875 -0.05
0.4 0.0875 -0.05
0.4125 0.0875 -0.05
0.425 0.0875 -0.05
0.4375 0.0875 -0.05
0.45 0.0875 -0.05
0.4625 0.0875 -0.05
0.475 0.0875 -0.05
0.4875 0.0875 -0.05
0.5 0.0875 -0.05
0.5125 0.0875 -0.05
0.525 0.0875 -0.05
0.5375 0.0875 -0.05
0.55 0.0875 -0.05
0.5625 0.0875 -0.05
0.575 0.0875 -0.05
0.5875 0.0875 -0.05
0.6 0.0875 -0.05
0.0 0.1 -0.05
0.0125 0.1 -0.05
0.025 0.1 -0.05
0.0375 0.1 -0.05
0.05 0.1 -0.05
0.0625 0.1 -0.05
0.075 0.1 -0.05
0.0875 0.1 -0.05
0.1 0.1 -0.05
0.1125 0.1 -0.05
0.125 0.1 -0.05
0.1375 0.1 -0.05
0.15 0.1 -0.05
0.1625 0.1 -0.05
0.175 0.1 -0.05
0.1875 0.1 -0.05
0.2 0.1 -0.05
0.2125 0.1 -0.05
0.225 0.1 -0.05
0.2375 0.1 -0.05
0.25 0.1 -0.05
0.2625 0.1 -0.05
0.275 0.1 -0.05
0.2875 0.1 -0.05
0.3 0.1 -0.05
0.3125 0.1 -0.05
0.325 0.1 -0.05
0.3375 0.1 -0.05
0.35 0.1 -0.05
0.3625 0.1 -0.05
0.375 0.1 -0.05
0.3875 0.1 -0.05
0.4 0.1 -0.05
0.4125 0.1 -0.05
0.425 0.1 -0.05
0.4375 0.1 -0.05
0.45 0.1 -0.05
0.4625 0.1 -0.05
0.475 0.1 -0.05
0.4875 0.1 -0.05
0.5 0.1 -0.05
0.5125 0.1 -0.05
0.525 0.1 -0.05
0.5375 0.1 -0.05
0.55 0.1 -0.05
0.5625 0.1 -0.05
0.575 0.1 -0.05
0.5875 0.1 -0.05
0.6 0.1 -0.05
0.0 0.1125 -0.05
0.0125 0.1125 -0.05
0.025 0.1125 -0.05
0.0375 0.1125 -0.05
0.05 0.1125 -0.05
0.0625 0.1125 -0.05
0.075 0.1125 -0.05
0.0875 0.1125 -0.05
0.1 0.1125 -0.05
0.1125 0.1125 -0.05
0.125 0.1125 -0.05
0.1375 0.1125 -0.05
0.15 0.1125 -0.05
0.1625 0.1125 -0.05
0.175 0.1125 -0.05
0.1875 0.1125 -0.05
0.2 0.1125 -0.05
0.2125 0.1125 -0.05
0.225 0.1125 -0.05
0.2375 0.1125 -0.05
0.25 0.1125 -0.05
0.2625 0.1125 -0.05
0.275 0.1125 -0.05
0.2875 0.1125 -0.05
0.3 0.1125 -0.05
0.3125 0.1125 -0.05
0.325 0.1125 -0.05
0.3375 0.1125 -0.05
0.35 0.1125 -0.05
0.3625 0.1125 -0.05
0.375 0.1125 -0.05
0.3875 0.1125 -0.05
0.4 0.1125 -0.05
0.4125 0.1125 -0.05
0.425 0.1125 -0.05
0.4375 0.1125 -0.05
0.45 0.1125 -0.05
0.4625 0.1125 -0.05
0.475 0.1125 -0.05
0.4875 0.1125 -0.05
0.5 0.1125 -0.05
0.5125 0.1125 -0.05
0.525 0.1125 -0.05
0.5375 0.1125 -0.05
0.55 0.1125 -0.05
0.5625 0.1125 -0.05
0.575 0.1125 -0.05
0.5875 0.1125 -0.05
0.6 0.1125 -0.05
0.0 0.125 -0.05
0.0125 0.125 -0.05
0.025 0.125 -0.05
0.0375 0.125 -0.05
0.05 0.125 -0.05
0.0625 0.125 -0.05
0.075 0.125 -0.05
0.0875 0.125 -0.05
0.1 0.125 -0.05
0.1125 0.125 -0.05
0.125 0.125 -0.05
0.1375 0.125 -0.05
0.15 0.125 -0.05
0.1625 0.125 -0.05
0.175 0.125 -0.05
0.1875 0.125 -0.05
0.2 0.125 -0.05
0.2125 0.125 -0.05
0.225 0.125 -0.05
0.2375 0.125 -0.05
0.25 0.125 -0.05
0.2625 0.125 -0.05
0.275 0.125 -0.05
0.2875 0.125 -0.05
0.3 0.125 -0.05
0.3125 0.125 -0.05
0.325 0.125 -0.05
0.3375 0.125 -0.05
0.35 0.125 -0.05
0.3625 0.125 -0.05
0.375 0.125 -0.05
0.3875 0.125 -0.05
0.4 0.125 -0.05
0.4125 0.125 -0.05
0.425 0.125 -0.05
0.4375 0.125 -0.05
0.45 0.125 -0.05
0.4625 0.125 -0.05
0.475 0.125 -0.05
0.4875 0.125 -0.05
0.5 0.125 -0.05
0.5125 0.125 -0.05
0.525 0.125 -0.05
0.5375 0.125 -0.05
0.55 0.125 -0.05
0.5625 0.125 -0.05
0.575 0.125 -0.05
0.5875 0.125 -0.05
0.6 0.125 -0.05
0.0 0.1375 -0.05
0.0125 0.1375 -0.05
0.025 0.1375 -0.05
0.0375 0.1375 -0.05
0.05 0.1375 -0.05
0.0625 0.1375 -0.05
0.075 0.1375 -0.05
0.0875 0.1375 -0.05
[...]
CELL_DATA 16128
SCALARS P float 1
LOOKUP_TABLE default
100000.00000006014
99999.9999998359
100000.00000044414
99999.9999987937
100000.00000327245
99999.99999111853
100000.00002409559
99999.99993463192
100000.00017729828
99999.99951918385
100000.0013036815
99999.99646587146
100000.00957864655
99999.97404441758
100000.07031566503
99999.80956232849
100000.51559409495
99998.60470272905
100003.77301082468
99989.82588440002
100026.9406769504
99940.11622180295
99866.81662191053
124317.26415917308
277747.87311036116
577076.910406079
861687.6157034204
999770.7894769594
1.0387420937711868e6
1.0535703402191696e6
1.065319590112521e6
1.0764938186911473e6
1.087243258293564e6
1.097554078973077e6
1.1074132070360829e6
1.1168091146061204e6
1.125727090881476e6
1.134147666150462e6
1.1420430979874907e6
1.149384133415245e6
1.1561196563253817e6
1.162238189627849e6
1.1675907474946892e6
1.1724199195828377e6
1.1758029088203683e6
1.1802782649471865e6
1.1781075440960915e6
1.1920727554536026e6
100000.00000005943
99999.99999983757
100000.00000043964
99999.99999880491
100000.00000324276
99999.99999119599
100000.0000238941
99999.99993515563
100000.00017594291
99999.99952268417
100000.00129465609
99999.99648914188
100000.00951852096
99999.97420047269
100000.06990803276
99999.81063345287
100000.51277945044
99998.61197341248
100003.75527489051
99989.8626962112
100026.8935104489
99940.20912174636
99859.88904547259
123758.72120168331
276282.18546243565
576691.5397067055
864895.3595352452
1.0062382094619059e6
1.0467458504648756e6
1.0622536256615608e6
1.074381352622234e6
1.0858116868101987e6
1.096771190283678e6
1.1072821586334028e6
1.1173474245264374e6
1.126960996917363e6
1.1361083696771972e6
1.1447673356271107e6
1.1529055143269603e6
1.1604874185760268e6
1.1674543632586102e6
1.1737855524738966e6
1.1793221876277134e6
1.1842944762918986e6
1.18776992737919e6
1.192285883786978e6
1.1900419203251763e6
1.2042122253049936e6
100000.00000005792
99999.99999984165
100000.0000004293
99999.99999883278
100000.00000317022
99999.99999138652
100000.000023397
99999.99993644477
100000.00017262087
99999.99953118066
100000.0012731314
99999.99654302115
100000.00938576809
99999.97452054847
100000.06916011857
99999.81229824625
100000.50936994475
99998.61785617744
100003.74944495085
99989.84905233183
100026.99548072269
99940.22471895863
99844.45085790295
122421.06309070725
271410.1268351644
569423.7333310393
858664.5595909011
1.0021684288598123e6
1.0434583186203578e6
1.058964838345442e6
1.070955054287687e6
1.082228414978803e6
1.093020264061336e6
1.1033517672452978e6
1.11322547450825e6
1.1226363035281764e6
1.131571466664091e6
1.1400110265835836e6
1.1479254739456065e6
1.155282563897967e6
1.1620281913389973e6
1.16814521686994e6
1.1734845664444738e6
1.1782734999492874e6
1.1816123083006754e6
1.1859893668204653e6
1.18367721830252e6
1.1980382545453808e6
100000.00000005554
99999.99999984806
100000.00000041256
99999.99999887744
100000.0000030518
99999.99999169933
100000.00002257286
99999.99993860719
100000.00016697365
99999.99954584772
100000.00123528563
99999.99663991443
100000.00914005985
99999.97513632178
100000.06763960168
99999.8159825852
100000.50065861114
99998.63779307705
100003.70577110538
99989.93913729681
100026.80953968246
99941.01260175124
99825.99434294335
120388.10314236757
263795.83134143054
558344.1360196127
850262.2007119796
998341.8109966257
1.0415725968475938e6
1.0574579976138705e6
1.0695068222237488e6
1.0807789217442384e6
1.0915490179873677e6
1.101849418347972e6
1.111689242657863e6
1.1210681645678047e6
1.1299770911930064e6
1.1383990370335768e6
1.1463069730412813e6
1.1536702499316512e6
1.1604363971099688e6
1.166586555423899e6
1.1719747724701066e6
1.1768127722608233e6
1.1802237211769356e6
1.1846302160036666e6
1.1823394895545999e6
1.1970740866029477e6
100000.0000000523
99999.99999985674
100000.00000038849
99999.9999989411
100000.00000288073
99999.99999215684
100000.00002135307
99999.99994185288
100000.00015836209
99999.99956862768
100000.00117523702
99999.99679758336
100000.00872792161
99999.97620815664
100000.06486822406
99999.82310128353
100000.4825095926
99998.68366813402
100003.59093369982
99990.22306038064
100026.11184989668
99942.8250515277
99812.619718803
117812.77734595143
253660.7347735471
543273.0378996417
838620.6138115609
992896.1085770219
1.0387313519733032e6
1.0550024293021797e6
1.0669972600886757e6
1.078153994329306e6
1.0887932740396198e6
1.0989538716037082e6
1.1086479823065563e6
1.1178779893900668e6
1.126637403844958e6
1.1349117380638823e6
1.1426765091382416e6
1.149903144265134e6
1.1565419851756794e6
1.1625738812896186e6
1.1678595959893905e6
1.172597222336585e6
1.1759443070362138e6
1.1802571115968835e6
1.1778971270414132e6
1.1930414396983767e6
100000.00000004798
99999.9999998683
100000.00000035715
99999.99999902617
100000.00000265116
99999.9999927767
100000.0000196803
99999.9999463592
100000.00014623665
99999.9996012054
100000.00108785271
99999.99703155526
100000.00810270605
99999.97787518534
100000.0604341596
99999.83486348204
100000.45140226066
99998.76565234413
100003.37573544406
99990.78424922458
100024.67155018101
99946.07877349561
99810.75808245833
114888.04419367119
241314.52765373548
524284.742629708
823595.2397532951
985870.2393299091
1.0352603130873444e6
1.0520963248121997e6
1.064035803132569e6
1.0750539699726023e6
1.0855380247686193e6
1.0955348978543538e6
1.1050602232176242e6
1.1141196274058348e6
1.1227098995406625e6
1.1308197846541612e6
1.1384280953400994e6
1.145508986125212e6
1.152016173392371e6
1.1579302783696041e6
1.1631189670303084e6
1.1677651917197553e6
1.1710614567369968e6
1.1752962582093112e6
1.1728665752285891e6
1.1885414806911945e6
100000.00000004277
99999.99999988268
100000.00000031845
99999.99999913215
100000.00000236256
99999.99999356337
100000.0000175389
99999.99995218888
100000.0001303762
99999.99964433379
100000.00097064744
99999.99734985823
100000.00723891631
99999.98021730324
100000.05408969993
99999.85203099226
100000.4050067912
99998.8908504995
100003.038520902
99991.68879354921
100022.29085226542
99951.25975358233
99823.19379038922
111827.45135413023
227143.06631982967
501492.66961578047
804904.1470639736
976963.969357681
1.0310049572341195e6
1.048628911605875e6
1.0605024703619038e6
1.0713380557379534e6
1.0816182798858522e6
1.0914003570364027e6
1.1007029462098363e6
1.1095345741138412e6
1.1178951758091496e6
1.1257767785342643e6
1.1331617199212166e6
1.140027299620488e6
1.1463313003989232e6
1.15205509347854e6
1.1570748902212658e6
1.1615605305714137e6
1.164743228493061e6
1.1688495256306827e6
1.1662974317027035e6
1.18261222309724e6
100000.00000003692
99999.9999998992
100000.00000027295
99999.99999925656
100000.00000202133
99999.999994499
100000.00001497252
99999.99995922967
100000.00011105985
99999.99969733205
100000.00082523382
99999.997748836
100000.00614426732
99999.98322038249
100000.04585208879
99999.87462278201
100000.34306542028
99999.06061299864
100002.57356835536
99992.95882475162
100018.88800495425
99958.7083361806
99848.16846213434
108846.7547708136
211609.02778207738
475084.85601426696
782260.6518321834
965857.5229070999
1.02585954965658e6
1.0445903257734273e6
1.0564111072301278e6
1.0670278622165585e6
1.0770602023587795e6
1.0865798180458276e6
1.0956083070877092e6
1.1041568021579713e6
1.1122282364433762e6
1.119817949381635e6
1.126912039999209e6
1.1334914611497489e6
1.139518894236296e6
1.1449778102883773e6
1.149754746564795e6
1.1540093480340024e6
1.1570142750370472e6
1.1609422691945836e6
1.1582098524190274e6
1.17530839758795e6
100000.0000000302
99999.9999999174
100000.00000022327
99999.99999939394
100000.00000164284
99999.99999554238
100000.00001209488
99999.99996716846
100000.00008914889
99999.9997578331
100000.000658104
99999.99821072549
100000.00486720314
99999.98675281442
100000.03607712056
99999.901682874
100000.26812714738
99999.26820823122
100001.99843623361
99994.54950661691
100014.56828526483
99968.39044478307
99880.01727832164
106142.80298535443
195248.25057598038
445345.18370766746
755375.7741572281
952155.8717491565
1.0196738555020139e6
1.0399501906878e6
1.0517549462478308e6
1.062117930474516e6
1.0718551312882435e6
1.0810595176017887e6
1.089755587839394e6
1.0979564163793926e6
1.1056672893434793e6
1.1128863174900827e6
1.1196029735057796e6
1.1258017345183892e6
1.1314503512087022e6
1.1365352223652243e6
1.1409544373133406e6
1.1448607583557835e6
1.1475715132788725e6
1.151218708613595e6
1.1481962617782475e6
1.1662412315960894e6
100000.00000002343
99999.99999993612
100000.0000001717
99999.99999953643
100000.00000124914
99999.99999663126
100000.00000908259
99999.99997550802
100000.00006604535
99999.99982188348
100000.00048040495
99999.99870410346
100000.00349628009
99999.99056517678
100000.02546677015
99999.93123753369
100000.1857348756
99999.49809220096
100001.3566262997
99996.33969335209
100009.6573750375
99979.72200564375
99911.31695519351
103871.15018717224
178659.4377884346
412681.00383220473
723988.4449862496
935386.1245626928
1.0122500830405158e6
1.0346725691666267e6
1.0465336891046035e6
1.0566121139256875e6
1.066005084180221e6
1.0748376847126456e6
1.083137505164188e6
1.090918520740253e6
1.0981871765720607e6
1.1049431614314443e6
1.1111782293067744e6
1.116879604527362e6
1.122019836179068e6
1.1265891753848908e6
1.1304992659558656e6
1.133901650384784e6
1.1361642600682117e6
1.139396791039886e6
1.1359445746219144e6
1.155157258161579e6
100000.00000001704
99999.99999995438
100000.00000012176
99999.99999967474
100000.0000008667
99999.99999768977
100000.00000615176
99999.99998363151
100000.00004351021
99999.99988445466
100000.00030650839
99999.99918787037
100000.0021491005
99999.99432077097
100000.01498548558
99999.96052301979
100000.10381108984
99999.72754885654
100000.71326201959
99998.14303003953
100004.67667206493
99991.53362567925
99935.79817759883
102125.95152569341
162482.99936591662
377649.3154663957
687905.9667356549
914994.1853143311
1.0033220979796861e6
1.0287061008611365e6
1.0407484151103122e6
1.0505187359638645e6
1.059516906519374e6
1.06791723859341e6
1.075751075530377e6
1.0830317374973656e6
1.0897647778677351e6
1.0959490634806606e6
1.101575849636211e6
1.1066319450827832e6
1.1110910016721122e6
1.114943130431643e6
1.1181087316634862e6
1.1207354764149894e6
1.122239524088901e6
1.1247299358610243e6
1.1204905116548776e6
1.1410469159791684e6
100000.00000001107
99999.99999997069
100000.00000007653
99999.99999979952
100000.0000005227
99999.99999864036
100000.0000035235
99999.99999090486
100000.00002336515
99999.99994030458
100000.00015151374
99999.99961847335
100000.0009514454
99999.99765588253
100000.005686314
99999.98648672577
100000.03121538299
99999.93083506492
100000.14321031878
99999.74181774378
100000.25041789465
100002.24695739728
99950.7721123043
100927.26868065044
147365.66923576067
340976.64426371723
647056.8525075851
890352.4458778442
992533.0434478994
1.0219741722094135e6
1.0344002471384441e6
1.0438519828893469e6
1.0524049388767008e6
1.0603096146449498e6
1.0676028169897837e6
1.0742951760374836e6
1.0803884184595526e6
1.0858770269617923e6
1.0907476195130593e6
1.0949821273101822e6
1.098551058813545e6
1.1014417223249117e6
1.1035832304052764e6
1.1051291993501126e6
1.1055593366657067e6
1.1070228863732961e6
1.1017105009460987e6
1.1240335394528834e6
100000.00000000601
99999.99999998449
100000.00000003901
99999.99999990276
100000.00000023941
99999.99999941894
100000.00000138256
99999.99999679679
100000.00000714119
99999.99998501413
100000.00002820457
99999.99995886913
100000.00001086884
100000.00025762735
99999.99848127215
100000.00646486889
99999.97574392719
100000.08508649438
99999.71365574014
100000.93836810855
99996.956805694
100010.26249767974
99957.86348855864
100221.21594686371
133908.64597899475
303566.42470636975
601554.2134078181
860783.1357132085
979410.4180320157
1.0143604260487915e6
1.0274869278013502e6
1.0366318425713663e6
1.0446920155298711e6
1.0520364415945671e6
1.058711119175636e6
1.0647214444965457e6
1.0700610473283413e6
1.074714179528312e6
1.0786547485381004e6
1.0818483938344773e6
1.08424571772033e6
1.0858054981506523e6
1.086428875446044e6
1.086216875275176e6
1.0846289962083425e6
1.083815657651908e6
1.0758312218950945e6
1.0993479448294877e6
100000.0000000024
99999.99999999504
100000.00000001074
99999.99999997963
100000.00000003065
99999.99999998632
99999.9999998408
100000.00000098506
99999.9999957637
100000.00001591796
99999.99994427217
100000.00018679457
99999.9993919845
100000.00193791647
99999.99391958886
100000.01884845059
99999.94212641072
100000.17635097138
99999.46590713572
100001.60991936897
99995.16258631188
100014.45711802856
99961.60551873194
99896.32430827232
122600.45630646806
266486.7279499896
551765.2218643966
825603.8355326089
963341.6223705226
1.0056886887751544e6
1.019997394490405e6
1.0288836019665081e6
1.0364104814349668e6
1.043131557898063e6
1.049109626910029e6
1.0543423494777186e6
1.0588102493435778e6
1.0624805002674211e6
1.0653053736797438e6
1.0672231973915899e6
1.068153887423911e6
1.0680199261625344e6
1.0666920029933313e6
1.0642613788107685e6
1.0602506408789896e6
1.0569356922888837e6
1.0463306920560466e6
1.072676490971564e6
99999.99999999984
100000.00000000192
99999.9999999923
100000.00000002918
99999.99999989927
100000.00000033478
99999.99999891907
100000.00000341657
99999.99998937298
100000.0000326476
99999.99990068603
100000.0002997046
99999.9991014959
100000.00267900452
99999.9920486511
100000.02350922328
99999.93071654749
100000.20362872756
99999.40288236363
100001.74757402553
99994.90011463789
100014.60632759935
99966.70106630232
99814.3823061359
113743.03089611333
230930.91825800814
498378.0731049846
784201.0229450769
943555.0394572128
995695.596573453
1.011903018545597e6
1.0206362213447809e6
1.0276025526252005e6
1.0336421844282385e6
1.0388490672631117e6
1.0432111339072293e6
1.046689599072495e6
1.0492247432597766e6
1.0507313835168607e6
1.051094864680319e6
1.0501545762793068e6
1.0477126633894898e6
1.043443264291629e6
1.0370933063136709e6
1.0276357112683362e6
1.0164639511563564e6
994157.416404779
1.0121086929124019e6
99999.99999999846
100000.00000000568
99999.99999998273
100000.00000005368
99999.99999983748
100000.00000048771
99999.9999985465
100000.00000430178
99999.99998733781
100000.00003709365
99999.99989178692
100000.00031453597
99999.9990887149
100000.00263259094
99999.99241443026
100000.02180620516
99999.9374458886
100000.1791017602
99999.48810474461
100001.46043751173
99995.84862175533
100011.51110712894
99975.55575878115
99847.04562602927
107389.86400852347
198144.66334545237
442453.5826392687
736134.9693235267
919114.9656823333
983994.5071897479
1.0031437611232445e6
1.0119189680855315e6
1.0183199704625461e6
1.0236298138328496e6
1.0279996705288969e6
1.0314081143788762e6
1.0337918160727948e6
1.0350559709927796e6
1.0350658939831727e6
1.0336388294811721e6
1.0305228640343547e6
1.0253961192937548e6
1.0177901736464719e6
1.0073218823147648e6
992996.1568700001
976529.0124315142
948814.6050610695
971850.8082462125
99999.99999999785
100000.00000000693
99999.99999997986
100000.0000000588
99999.99999982958
100000.00000049206
99999.99999858603
100000.00000404619
99999.99998846289
100000.00003278445
99999.99990714352
100000.00026216246
99999.99926215225
100000.00207015013
99999.99421027994
100000.01613963122
99999.95516198623
100000.12411494588
99999.65778870076
100000.93922988012
99997.44195268968
100006.73080799734
99987.20107544893
99904.72208956772
103323.01452071985
169314.20937974524
385445.29385214567
681274.6408547829
888943.2248293249
970030.8494895106
993606.9420055632
1.0027552044477025e6
1.008622133801629e6
1.0131692859169001e6
1.0166501904728377e6
1.019038652038882e6
1.0202427716567446e6
1.0201234030760613e6
1.0184808882806795e6
1.0150337891714649e6
1.0093656143183581e6
1.0008629443449292e6
988494.8646927093
970682.6796473209
943739.8922237501
902776.9061628411
824326.0799528431
696155.6687500541
99999.99999999766
100000.00000000653
99999.99999998171
100000.00000005137
99999.99999985521
100000.0000004048
99999.99999887026
100000.00000313729
99999.99999132389
100000.00002388457
99999.99993456081
100000.00017835095
99999.99951673146
100000.00130090154
99999.99652458912
100000.00920210601
99999.97589595948
100000.06230152003
99999.84169672197
100000.39303834265
99999.05929383115
100002.03353754955
99998.4256129504
99945.97241028374
101092.36081371397
145414.06097280743
329169.8321968943
619953.2846312826
851885.2273601952
953032.9888360378
983096.2004578646
993152.1936977132
998572.5760230499
1.0023468120543058e6
1.0049064880837434e6
1.0062333787634901e6
1.0062075009757947e6
1.0046426750999882e6
1.0012746243665076e6
995719.8899200395
987405.2680390611
975466.6264973711
958470.4041092861
934195.7070336214
898106.0495314818
844280.6547744315
753303.0555415268
617094.3142943224
99999.99999999798
100000.00000000485
99999.99999998603
100000.00000003805
99999.99999989606
100000.00000028108
99999.99999924224
100000.0000020265
99999.99999462155
100000.00001414063
99999.99996322658
100000.00009434331
99999.99976206613
100000.00058670888
99999.99859754735
100000.00320189877
99999.9932182435
100000.01241860166
99999.98499120217
99999.98249025048
100000.23037197943
99998.76448667624
100005.99575419955
99966.2205416981
100121.10627893006
127025.03302718088
275709.14850333
553122.2380209166
806839.861384638
931969.0784392698
971288.3189221529
983085.1940521658
988232.953070461
991255.8022487327
992886.3308773296
993140.3531081519
991874.7516598866
988866.6205273155
983795.008620042
976200.0279330041
965403.8931628307
950407.0866422959
929629.0303625658
900750.0453178032
859538.442637564
801071.1534702058
712314.3585545885
591787.2095786551
99999.9999999987
100000.00000000327
99999.9999999908
100000.00000002385
99999.99999993705
100000.00000016193
99999.99999958562
100000.0000010406
99999.99999743977
100000.0000061207
99999.9999859507
100000.00003024677
99999.99994200448
100000.0000841293
99999.99999349598
99999.99934860576
100000.00377926041
99999.98371307657
100000.06223839082
99999.77721551125
100000.76593855508
99997.43000184899
100008.4956677361
99976.31743674207
99849.4017644291
114166.39024758268
227231.58569342922
482463.6436781023
752965.0230159168
905528.0313484735
957675.9360075782
972473.323372455
977653.7933181233
979990.7183885981
980711.9607842294
979912.2072052788
977440.7702685441
973048.7256375038
966379.3862795227
956930.3625372394
943982.3057558256
926512.4802289534
902990.9679357848
871314.8232393865
828017.8544800953
769553.0185081728
687946.4132908926
584779.4113902841
99999.99999999924
100000.00000000183
99999.99999999494
100000.00000001222
99999.99999996979
100000.00000007116
99999.99999983782
100000.00000034527
99999.99999934413
100000.00000094611
99999.999999886
99999.9999931128
100000.00003968625
99999.99983130294
100000.00063420238
99999.99777116095
100000.00750294054
99999.97549501859
100000.0782381617
99999.75464336024
100000.75821966291
99997.68796574783
100006.83340376573
99985.38479871681
99858.72773551538
106226.63982506828
185730.94320475223
410412.4202194408
689952.8673240475
872151.7899790352
941496.1038133593
961143.4823673514
966860.7983424272
968639.6119699364
968502.487777744
966696.5009378865
963089.0584951832
957419.1860417639
949316.3905659575
938270.0505130109
923573.055081146
904260.5300209088
878968.4449364281
845941.6705165645
802551.7250222707
746435.1201589765
673025.2293901816
584695.6935302626
99999.99999999967
100000.0000000008
99999.9999999978
100000.00000000445
99999.9999999908
100000.0000000152
99999.99999998524
99999.99999996256
100000.00000031995
99999.9999985129
100000.00000576687
99999.99997953046
100000.00006882864
99999.99977699184
100000.00070273198
99999.99783443798
100000.0065478796
99999.9805372571
100000.0569181446
99999.83623530655
100000.46304178413
99998.7194791018
100003.33595950453
99994.97406974557
99921.04779922964
102076.5974212401
152696.52044403227
340042.156557344
618344.4191867803
830157.6765875663
921652.2343994458
948778.1213838588
955834.5923830188
957274.9406407875
956365.869986803
953627.8332663474
948980.216182308
942169.2207601392
932829.8759184312
920471.0196127854
904435.590113556