# vtk DataFile Version 2.0
JuliaCFD
ASCII
DATASET UNSTRUCTURED_GRID

POINTS 32898 float
0.0 0.0 -0.05
0.0125 0.0 -0.05
0.025 0.0 -0.05
0.0375 0.0 -0.05
0.05 0.0 -0.05
0.0625 0.0 -0.05
0.075 0.0 -0.05
0.0875 0.0 -0.05
0.1 0.0 -0.05
0.1125 0.0 -0.05
0.125 0.0 -0.05
0.1375 0.0 -0.05
0.15 0.0 -0.05
0.1625 0.0 -0.05
0.175 0.0 -0.05
0.1875 0.0 -0.05
0.2 0.0 -0.05
0.2125 0.0 -0.05
0.225 0.0 -0.05
0.2375 0.0 -0.05
0.25 0.0 -0.05
0.2625 0.0 -0.05
0.275 0.0 -0.05
0.2875 0.0 -0.05
0.3 0.0 -0.05
0.3125 0.0 -0.05
0.325 0.0 -0.05
0.3375 0.0 -0.05
0.35 0.0 -0.05
0.3625 0.0 -0.05
0.375 0.0 -0.05
0.3875 0.0 -0.05
0.4 0.0 -0.05
0.4125 0.0 -0.05
0.425 0.0 -0.05
0.4375 0.0 -0.05
0.45 0.0 -0.05
0.4625 0.0 -0.05
0.475 0.0 -0.05
0.4875 0.0 -0.05
0.5 0.0 -0.05
0.5125 0.0 -0.05
0.525 0.0 -0.05
0.5375 0.0 -0.05
0.55 0.0 -0.05
0.5625 0.0 -0.05
0.575 0.0 -0.05
0.5875 0.0 -0.05
0.6 0.0 -0.05
0.0 0.0125 -0.05
0.0125 0.0125 -0.05
0.025 0.0125 -0.05
0.0375 0.0125 -0.05
0.05 0.0125 -0.05
0.0625 0.0125 -0.05
0.075 0.0125 -0.05
0.0875 0.0125 -0.05
0.1 0.0125 -0.05
0.1125 0.0125 -0.05
0.125 0.0125 -0.05
0.1375 0.0125 -0.05
0.15 0.0125 -0.05
0.1625 0.0125 -0.05
0.175 0.0125 -0.05
0.1875 0.0125 -0.05
0.2 0.0125 -0.05
0.2125 0.0125 -0.05
0.225 0.0125 -0.05
0.2375 0.0125 -0.05
0.25 0.0125 -0.05
0.2625 0.0125 -0.05
0.275 0.0125 -0.05
0.2875 0.0125 -0.05
0.3 0.0125 -0.05
0.3125 0.0125 -0.05
0.325 0.0125 -0.05
0.3375 0.0125 -0.05
0.35 0.0125 -0.05
0.3625 0.0125 -0.05
0.375 0.0125 -0.05
0.3875 0.0125 -0.05
0.4 0.0125 -0.05
0.4125 0.0125 -0.05
0.425 0.0125 -0.05
0.4375 0.0125 -0.05
0.45 0.0125 -0.05
0.4625 0.0125 -0.05
0.475 0.0125 -0.05
0.4875 0.0125 -0.05
0.5 0.0125 -0.05
0.5125 0.0125 -0.05
0.525 0.0125 -0.05
0.5375 0.0125 -0.05
0.55 0.0125 -0.05
0.5625 0.0125 -0.05
0.575 0.0125 -0.05
0.5875 0.0125 -0.05
0.6 0.0125 -0.05
0.0 0.025 -0.05
0.0125 0.025 -0.05
0.025 0.025 -0.05
0.0375 0.025 -0.05
0.05 0.025 -0.05
0.0625 0.025 -0.05
0.075 0.025 -0.05
0.0875 0.025 -0.05
0.1 0.025 -0.05
0.1125 0.025 -0.05
0.125 0.025 -0.05
0.1375 0.025 -0.05
0.15 0.025 -0.05
0.1625 0.025 -0.05
0.175 0.025 -0.05
0.1875 0.025 -0.05
0.2 0.025 -0.05
0.2125 0.025 -0.05
0.225 0.025 -0.05
0.2375 0.025 -0.05
0.25 0.025 -0.05
0.2625 0.025 -0.05
0.275 0.025 -0.05
0.2875 0.025 -0.05
0.3 0.025 -0.05
0.3125 0.025 -0.05
0.325 0.025 -0.05
0.3375 0.025 -0.05
0.35 0.025 -0.05
0.3625 0.025 -0.05
0.375 0.025 -0.05
0.3875 0.025 -0.05
0.4 0.025 -0.05
0.4125 0.025 -0.05
0.425 0.025 -0.05
0.4375 0.025 -0.05
0.45 0.025 -0.05
0.4625 0.025 -0.05
0.475 0.025 -0.05
0.4875 0.025 -0.05
0.5 0.025 -0.05
0.5125 0.025 -0.05
0.525 0.025 -0.05
0.5375 0.025 -0.05
0.55 0.025 -0.05
0.5625 0.025 -0.05
0.575 0.025 -0.05
0.5875 0.025 -0.05
0.6 0.025 -0.05
0.0 0.0375 -0.05
0.0125 0.0375 -0.05
0.025 0.0375 -0.05
0.0375 0.0375 -0.05
0.05 0.0375 -0.05
0.0625 0.0375 -0.05
0.075 0.0375 -0.05
0.0875 0.0375 -0.05
0.1 0.0375 -0.05
0.1125 0.0375 -0.05
0.125 0.0375 -0.05
0.1375 0.0375 -0.05
0.15 0.0375 -0.05
0.1625 0.0375 -0.05
0.175 0.0375 -0.05
0.1875 0.0375 -0.05
0.2 0.0375 -0.05
0.2125 0.0375 -0.05
0.225 0.0375 -0.05
0.2375 0.0375 -0.05
0.25 0.0375 -0.05
0.2625 0.0375 -0.05
0.275 0.0375 -0.05
0.2875 0.0375 -0.05
0.3 0.0375 -0.05
0.3125 0.0375 -0.05
0.325 0.0375 -0.05
0.3375 0.0375 -0.05
0.35 0.0375 -0.05
0.3625 0.0375 -0.05
0.375 0.0375 -0.05
0.3875 0.0375 -0.05
0.4 0.0375 -0.05
0.4125 0.0375 -0.05
0.425 0.0375 -0.05
0.4375 0.0375 -0.05
0.45 0.0375 -0.05
0.4625 0.0375 -0.05
0.475 0.0375 -0.05
0.4875 0.0375 -0.05
0.5 0.0375 -0.05
0.5125 0.0375 -0.05
0.525 0.0375 -0.05
0.5375 0.0375 -0.05
0.55 0.0375 -0.05
0.5625 0.0375 -0.05
0.575 0.0375 -0.05
0.5875 0.0375 -0.05
0.6 0.0375 -0.05
0.0 0.05 -0.05
0.0125 0.05 -0.05
0.025 0.05 -0.05
0.0375 0.05 -0.05
0.05 0.05 -0.05
0.0625 0.05 -0.05
0.075 0.05 -0.05
0.0875 0.05 -0.05
0.1 0.05 -0.05
0.1125 0.05 -0.05
0.125 0.05 -0.05
0.1375 0.05 -0.05
0.15 0.05 -0.05
0.1625 0.05 -0.05
0.175 0.05 -0.05
0.1875 0.05 -0.05
0.2 0.05 -0.05
0.2125 0.05 -0.05
0.225 0.05 -0.05
0.2375 0.05 -0.05
0.25 0.05 -0.05
0.2625 0.05 -0.05
0.275 0.05 -0.05
0.2875 0.05 -0.05
0.3 0.05 -0.05
0.3125 0.05 -0.05
0.325 0.05 -0.05
0.3375 0.05 -0.05
0.35 0.05 -0.05
0.3625 0.05 -0.05
0.375 0.05 -0.05
0.3875 0.05 -0.05
0.4 0.05 -0.05
0.4125 0.05 -0.05
0.425 0.05 -0.05
0.4375 0.05 -0.05
0.45 0.05 -0.05
0.4625 0.05 -0.05
0.475 0.05 -0.05
0.4875 0.05 -0.05
0.5 0.05 -0.05
0.5125 0.05 -0.05
0.525 0.05 -0.05
0.5375 0.05 -0.05
0.55 0.05 -0.05
0.5625 0.05 -0.05
0.575 0.05 -0.05
0.5875 0.05 -0.05
0.6 0.05 -0.05
0.0 0.0625 -0.05
0.0125 0.0625 -0.05
0.025 0.0625 -0.05
0.0375 0.0625 -0.05
0.05 0.0625 -0.05
0.0625 0.0625 -0.05
0.075 0.0625 -0.05
0.0875 0.0625 -0.05
0.1 0.0625 -0.05
0.1125 0.0625 -0.05
0.125 0.0625 -0.05
0.1375 0.0625 -0.05
0.15 0.0625 -0.05
0.1625 0.0625 -0.05
0.175 0.0625 -0.05
0.1875 0.0625 -0.05
0.2 0.0625 -0.05
0.2125 0.0625 -0.05
0.225 0.0625 -0.05
0.2375 0.0625 -0.05
0.25 0.0625 -0.05
0.2625 0.0625 -0.05
0.275 0.0625 -0.05
0.2875 0.0625 -0.05
0.3 0.0625 -0.05
0.3125 0.0625 -0.05
0.325 0.0625 -0.05
0.3375 0.0625 -0.05
0.35 0.0625 -0.05
0.3625 0.0625 -0.05
0.375 0.0625 -0.05
0.3875 0.0625 -0.05
0.4 0.0625 -0.05
0.4125 0.0625 -0.05
0.425 0.0625 -0.05
0.4375 0.0625 -0.05
0.45 0.0625 -0.05
0.4625 0.0625 -0.05
0.475 0.0625 -0.05
0.4875 0.0625 -0.05
0.5 0.0625 -0.05
0.5125 0.0625 -0.05
0.525 0.0625 -0.05
0.5375 0.0625 -0.05
0.55 0.0625 -0.05
0.5625 0.0625 -0.05
0.575 0.0625 -0.05
0.5875 0.0625 -0.05
0.6 0.0625 -0.05
0.0 0.075 -0.05
0.0125 0.075 -0.05
0.025 0.075 -0.05
0.0375 0.075 -0.05
0.05 0.075 -0.05
0.0625 0.075 -0.05
0.075 0.075 -0.05
0.0875 0.075 -0.05
0.1 0.075 -0.05
0.1125 0.075 -0.05
0.125 0.075 -0.05
0.1375 0.075 -0.05
0.15 0.075 -0.05
0.1625 0.075 -0.05
0.175 0.075 -0.05
0.1875 0.075 -0.05
0.2 0.075 -0.05
0.2125 0.075 -0.05
0.225 0.075 -0.05
0.2375 0.075 -0.05
0.25 0.075 -0.05
0.2625 0.075 -0.05
0.275 0.075 -0.05
0.2875 0.075 -0.05
0.3 0.075 -0.05
0.3125 0.075 -0.05
0.325 0.075 -0.05
0.3375 0.075 -0.05
0.35 0.075 -0.05
0.3625 0.075 -0.05
0.375 0.075 -0.05
0.3875 0.075 -0.05
0.4 0.075 -0.05
0.4125 0.075 -0.05
0.425 0.075 -0.05
0.4375 0.075 -0.05
0.45 0.075 -0.05
0.4625 0.075 -0.05
0.475 0.075 -0.05
0.4875 0.075 -0.05
0.5 0.075 -0.05
0.5125 0.075 -0.05
0.525 0.075 -0.05
0.5375 0.075 -0.05
0.55 0.075 -0.05
0.5625 0.075 -0.05
0.575 0.075 -0.05
0.5875 0.075 -0.05
0.6 0.075 -0.05
0.0 0.0875 -0.05
0.0125 0.0875 -0.05
0.025 0.0875 -0.05
0.0375 0.0875 -0.05
0.05 0.0875 -0.05
0.0625 0.0875 -0.05
0.075 0.0875 -0.05
0.0875 0.0875 -0.05
0.1 0.0875 -0.05
0.1125 0.0875 -0.05
0.125 0.0875 -0.05
0.1375 0.0875 -0.05
0.15 0.0875 -0.05
0.1625 0.0875 -0.05
0.175 0.0875 -0.05
0.1875 0.0875 -0.05
0.2 0.0875 -0.05
0.2125 0.0875 -0.05
0.225 0.0875 -0.05
0.2375 0.0875 -0.05
0.25 0.0875 -0.05
0.2625 0.0875 -0.05
0.275 0.0875 -0.05
0.2875 0.0875 -0.05
0.3 0.0875 -0.05
0.3125 0.0875 -0.05
0.325 0.0875 -0.05
0.3375 0.0875 -0.05
0.35 0.0875 -0.05
0.3625 0.0875 -0.05
0.375 0.0875 -0.05
0.3875 0.0875 -0.05
0.4 0.0875 -0.05
0.4125 0.0875 -0.05
0.425 0.0875 -0.05
0.4375 0.0875 -0.05
0.45 0.0875 -0.05
0.4625 0.0875 -0.05
0.475 0.0875 -0.05
0.4875 0.0875 -0.05
0.5 0.0875 -0.05
0.5125 0.0875 -0.05
0.525 0.0875 -0.05
0.5375 0.0875 -0.05
0.55 0.0875 -0.05
0.5625 0.0875 -0.05
0.575 0.0875 -0.05
0.5875 0.0875 -0.05
0.6 0.0875 -0.05
0.0 0.1 -0.05
0.0125 0.1 -0.05
0.025 0.1 -0.05
0.0375 0.1 -0.05
0.05 0.1 -0.05
0.0625 0.1 -0.05
0.075 0.1 -0.05
0.0875 0.1 -0.05
0.1 0.1 -0.05
0.1125 0.1 -0.05
0.125 0.1 -0.05
0.1375 0.1 -0.05
0.15 0.1 -0.05
0.1625 0.1 -0.05
0.175 0.1 -0.05
0.1875 0.1 -0.05
0.2 0.1 -0.05
0.2125 0.1 -0.05
0.225 0.1 -0.05
0.2375 0.1 -0.05
0.25 0.1 -0.05
0.2625 0.1 -0.05
0.275 0.1 -0.05
0.2875 0.1 -0.05
0.3 0.1 -0.05
0.3125 0.1 -0.05
0.325 0.1 -0.05
0.3375 0.1 -0.05
0.35 0.1 -0.05
0.3625 0.1 -0.05
0.375 0.1 -0.05
0.3875 0.1 -0.05
0.4 0.1 -0.05
0.4125 0.1 -0.05
0.425 0.1 -0.05
0.4375 0.1 -0.05
0.45 0.1 -0.05
0.4625 0.1 -0.05
0.475 0.1 -0.05
0.4875 0.1 -0.05
0.5 0.1 -0.05
0.5125 0.1 -0.05
0.525 0.1 -0.05
0.5375 0.1 -0.05
0.55 0.1 -0.05
0.5625 0.1 -0.05
0.575 0.1 -0.05
0.5875 0.1 -0.05
0.6 0.1 -0.05
0.0 0.1125 -0.05
0.0125 0.1125 -0.05
0.025 0.1125 -0.05
0.0375 0.1125 -0.05
0.05 0.1125 -0.05
0.0625 0.1125 -0.05
0.075 0.1125 -0.05
0.0875 0.1125 -0.05
0.1 0.1125 -0.05
0.1125 0.1125 -0.05
0.125 0.1125 -0.05
0.1375 0.1125 -0.05
0.15 0.1125 -0.05
0.1625 0.1125 -0.05
0.175 0.1125 -0.05
0.1875 0.1125 -0.05
0.2 0.1125 -0.05
0.2125 0.1125 -0.05
0.225 0.1125 -0.05
0.2375 0.1125 -0.05
0.25 0.1125 -0.05
0.2625 0.1125 -0.05
0.275 0.1125 -0.05
0.2875 0.1125 -0.05
0.3 0.1125 -0.05
0.3125 0.1125 -0.05
0.325 0.1125 -0.05
0.3375 0.1125 -0.05
0.35 0.1125 -0.05
0.3625 0.1125 -0.05
0.375 0.1125 -0.05
0.3875 0.1125 -0.05
0.4 0.1125 -0.05
0.4125 0.1125 -0.05
0.425 0.1125 -0.05
0.4375 0.1125 -0.05
0.45 0.1125 -0.05
0.4625 0.1125 -0.05
0.475 0.1125 -0.05
0.4875 0.1125 -0.05
0.5 0.1125 -0.05
0.5125 0.1125 -0.05
0.525 0.1125 -0.05
0.5375 0.1125 -0.05
0.55 0.1125 -0.05
0.5625 0.1125 -0.05
0.575 0.1125 -0.05
0.5875 0.1125 -0.05
0.6 0.1125 -0.05
0.0 0.125 -0.05
0.0125 0.125 -0.05
0.025 0.125 -0.05
0.0375 0.125 -0.05
0.05 0.125 -0.05
0.0625 0.125 -0.05
0.075 0.125 -0.05
0.0875 0.125 -0.05
0.1 0.125 -0.05
0.1125 0.125 -0.05
0.125 0.125 -0.05
0.1375 0.125 -0.05
0.15 0.125 -0.05
0.1625 0.125 -0.05
0.175 0.125 -0.05
0.1875 0.125 -0.05
0.2 0.125 -0.05
0.2125 0.125 -0.05
0.225 0.125 -0.05
0.2375 0.125 -0.05
0.25 0.125 -0.05
0.2625 0.125 -0.05
0.275 0.125 -0.05
0.2875 0.125 -0.05
0.3 0.125 -0.05
0.3125 0.125 -0.05
0.325 0.125 -0.05
0.3375 0.125 -0.05
0.35 0.125 -0.05
0.3625 0.125 -0.05
0.375 0.125 -0.05
0.3875 0.125 -0.05
0.4 0.125 -0.05
0.4125 0.125 -0.05
0.425 0.125 -0.05
0.4375 0.125 -0.05
0.45 0.125 -0.05
0.4625 0.125 -0.05
0.475 0.125 -0.05
0.4875 0.125 -0.05
0.5 0.125 -0.05
0.5125 0.125 -0.05
0.525 0.125 -0.05
0.5375 0.125 -0.05
0.55 0.125 -0.05
0.5625 0.125 -0.05
0.575 0.125 -0.05
0.5875 0.125 -0.05
0.6 0.125 -0.05
0.0 0.1375 -0.05
0.0125 0.1375 -0.05
0.025 0.1375 -0.05
0.0375 0.1375 -0.05
0.05 0.1375 -0.05
0.0625 0.1375 -0.05
0.075 0.1375 -0.05
0.0875 0.1375 -0.05
[...]
CELL_DATA 16128
SCALARS P float 1
LOOKUP_TABLE default
100000.00000000534
100000.00000001719
100000.0000000558
100000.00000017975
100000.00000058078
100000.00000187424
100000.00000604625
100000.00001949487
100000.00006282653
100000.00020237481
100000.00065157766
100000.00209690734
100000.00674530501
100000.02168897665
100000.06971029456
100000.22396477063
100000.71926819332
100002.30904035029
100007.40964455024
100023.76669414106
100076.18697864597
100243.96735714198
100779.32275361709
102473.56829179224
107721.46196238748
123128.83548664677
163232.60386064346
248299.29152486025
388743.4940111603
568872.2214078073
750149.7660674255
895318.0770364463
990905.4439646339
1.0462747747086444e6
1.0776004707204788e6
1.0970194212796586e6
1.111067310072554e6
1.1226576509220372e6
1.1329270866932464e6
1.1422627800983766e6
1.1507666483137757e6
1.1584399650662644e6
1.1652498371316108e6
1.1711515615394448e6
1.176096379750845e6
1.1800381027682372e6
1.1831695201252229e6
1.2055235771385268e6
100000.00000000544
100000.00000001708
100000.00000005528
100000.0000001785
100000.00000057636
100000.00000185956
100000.00000599802
100000.00001933677
100000.0000623086
100000.00020067797
100000.0006460206
100000.00207871113
100000.00668574139
100000.02149407014
100000.06907278227
100000.22188066266
100000.71245974129
100002.28681975004
100007.3372264004
100023.5311989281
100075.42398332692
100241.51162741004
100771.521306366
102449.45601818382
107651.29092707054
122950.67102488574
162900.60828852165
248027.42886540364
389333.1536811217
571641.6020263688
756246.4893943523
904993.902025359
1.0035353220828059e6
1.0609556462903668e6
1.093609841337696e6
1.1139132911828447e6
1.1286074422096738e6
1.1407231730933944e6
1.1514539046746667e6
1.1612086355451425e6
1.1700921894850852e6
1.1780987477284786e6
1.185183510876534e6
1.1912889430119349e6
1.1963568503683144e6
1.2003426621981896e6
1.2035284287371729e6
1.2263203646801836e6
100000.00000000534
100000.00000001684
100000.00000005451
100000.00000017557
100000.00000056638
100000.00000182693
100000.00000589094
100000.00001898612
100000.00006115937
100000.00019691307
100000.00063368914
100000.00203833188
100000.00655355751
100000.02106149205
100000.06765765318
100000.21725318824
100000.69733583284
100002.23742403448
100007.17604449729
100023.00593882716
100073.71573062503
100235.97555111026
100753.70485177821
102392.99220258839
107478.52863373914
122463.13235597435
161734.77069408426
245849.783260661
386236.8938202104
568282.0168056721
753485.6575164952
903345.8324761413
1.0029623478660821e6
1.061117652587688e6
1.094161405620446e6
1.1146145166451712e6
1.1293147055325776e6
1.1413542281773011e6
1.1519608990926351e6
1.1615622616365873e6
1.1702735732180334e6
1.1780958960136685e6
1.184990297461218e6
1.1909054148073657e6
1.1957899713960465e6
1.1996108948724347e6
1.2028046297595273e6
1.2258507184115625e6
100000.00000000511
100000.00000001641
100000.00000005309
100000.00000017097
100000.0000005515
100000.0000017783
100000.0000057317
100000.00001846398
100000.00005944865
100000.0001913094
100000.00061533939
100000.00197825814
100000.00635693577
100000.02041811215
100000.06555298674
100000.21037039525
100000.67483541365
100002.16389989977
100006.93592094723
100022.22228839985
100071.16113675517
100227.66531947597
100726.79806164662
102306.88851760725
107210.96432615306
121689.27021854001
159813.75241460028
242066.45598048475
380445.840930982
561277.940230842
746618.7364340592
897645.1677970723
998634.9011217658
1.0578085320680395e6
1.0914256015709015e6
1.1121354035881846e6
1.1269131353722066e6
1.1389409093683257e6
1.1494963925514484e6
1.159033476392829e6
1.1676816711974551e6
1.1754502361820012e6
1.1823049398701212e6
1.1881961103330213e6
1.1930705160052788e6
1.1968959721271945e6
1.2002817308335279e6
1.2237761272437305e6
100000.000000005
100000.00000001599
100000.00000005121
100000.0000001651
100000.00000053222
100000.00000171529
100000.00000552519
100000.00001778746
100000.00005723334
100000.00018405619
100000.0005915972
100000.00190055928
100000.00610270981
100000.01958646982
100000.06283301099
100000.20147625355
100000.64575833322
100002.06886139067
100006.62536628089
100021.20783318886
100067.84919889363
100216.86683044808
100691.7162998422
102194.06439938115
106857.78204655317
120656.39599988388
157209.18087102877
236844.04029033342
372315.50243092683
551296.2968695869
736701.9713075976
889315.5072817104
992245.5233553312
1.0528760043488117e6
1.0873160475793052e6
1.1083977945183886e6
1.1232975971371322e6
1.135327698337258e6
1.1458356939729415e6
1.1553104317387573e6
1.163898683686417e6
1.1716182300847166e6
1.1784384482144464e6
1.184309597182587e6
1.1891754502028371e6
1.193010550906034e6
1.1966245508498026e6
1.2206961605661944e6
100000.00000000474
100000.00000001532
100000.00000004907
100000.00000015808
100000.00000050913
100000.0000016396
100000.00000527706
100000.00001697546
100000.00005457547
100000.00017535957
100000.00056314579
100000.00180749869
100000.00579837752
100000.0185913913
100000.05957987646
100000.1908424171
100000.61100232085
100001.95527377613
100006.25417384367
100019.99493625459
100063.88703994913
100203.9356259262
100649.64205630802
102058.43261026371
106431.54609319806
119401.04749255857
154005.8728699035
230327.4000831223
362033.9861813731
538538.4777225581
723935.9356300213
878570.8386826606
984041.0097735524
1.0465989711627639e6
1.08212634633492e6
1.1036904865021745e6
1.118737605313421e6
1.1307555714231303e6
1.1411854461483452e6
1.1505617183154495e6
1.1590529187290792e6
1.1666872186871695e6
1.1734385758401125e6
1.1792582755031988e6
1.184089612812861e6
1.1879227343561205e6
1.1917882678037358e6
1.2165820804169334e6
100000.00000000469
100000.00000001461
100000.00000004661
100000.0000001499
100000.00000048261
100000.00000155307
100000.0000049939
100000.00001604891
100000.00005154534
100000.00016545161
100000.00053075641
100000.00170163657
100000.00545243689
100000.01746107869
100000.05588719345
100000.178779704
100000.57160000423
100001.82657109764
100005.8337812082
100018.62177756234
100059.40248255852
100189.300899486
100602.01693936656
101904.78950741074
105947.64044742957
117967.62819102962
150304.703671098
222676.17981908517
349768.651800872
523106.10322050244
708323.5923272088
865351.7088137976
973961.1048583682
1.0389487821129592e6
1.0758576414412074e6
1.098029455058142e6
1.1132498768421854e6
1.1252323216268565e6
1.135538557444138e6
1.1447618123700984e6
1.1530985114498998e6
1.1605905211580845e6
1.1672189425295696e6
1.1729390140046976e6
1.177697909136719e6
1.181511463009051e6
1.185651502302653e6
1.2113432046903737e6
100000.00000000448
100000.00000001359
100000.00000004393
100000.00000014108
100000.00000045351
100000.00000145765
100000.00000468244
100000.00001503104
100000.00004821953
100000.000154587
100000.0004952733
100000.00158577626
100000.00507419488
100000.01622645039
100000.0518577265
100000.16562994587
100000.52868963956
100001.68654897458
100005.37686829038
100017.13081050264
100054.53800185885
100173.4415999636
100550.44845335065
101738.46932352915
105423.13391900246
116405.64539771012
146220.10418983427
214074.36505967766
335710.4388041249
505101.65413662756
689830.3187347747
849527.2622056718
961860.2250268683
1.0298148600430419e6
1.0684394640003932e6
1.0913694597621977e6
1.106798169556312e6
1.118718775064507e6
1.1288450668004518e6
1.1378448110277627e6
1.1459501958416018e6
1.1532214636816175e6
1.1596508756422424e6
1.1652022745792887e6
1.1698331133766768e6
1.1735976098532272e6
1.1780356433870797e6
1.2048474616714164e6
100000.00000000406
100000.0000000128
100000.0000000411
100000.00000013161
100000.00000042235
100000.00000135587
100000.00000435013
100000.0000139461
100000.00004467845
100000.00014303264
100000.00045758252
100000.00146285591
100000.0046734036
100000.01491988724
100000.04759906954
100000.15175095359
100000.48346243048
100001.53917822598
100004.89669158892
100015.56636371298
100049.44204612052
100156.85510156782
100496.59870106551
101564.96451388142
104875.59471545473
114766.69452006319
141875.530823484
204730.17510093248
320087.4131626087
484660.25120958174
668429.4439829073
830945.110269267
947555.5854019121
1.0190497814045718e6
1.0597717729848896e6
1.0836427953179548e6
1.0993283488836982e6
1.111159791480356e6
1.1210386892270523e6
1.12972605872309e6
1.137499419032285e6
1.144443257383301e6
1.1505663118243567e6
1.1558475876492388e6
1.1602642386112707e6
1.1639269070481218e6
1.1686848851800496e6
1.1969110708529206e6
100000.00000000367
100000.00000001179
100000.00000003797
100000.00000012167
100000.00000038999
100000.0000012499
100000.00000400438
100000.00001281871
100000.00004100331
100000.00013105774
100000.00041857483
100000.00133582711
100000.00425984219
100000.01357380422
100000.04321873139
100000.13749954427
100000.43710360127
100001.38839938692
100004.40636507473
100013.97212058914
100044.2602184164
100140.02657155371
100442.07964426052
101389.5786195539
104322.00818767448
113101.51861972171
137397.97373020372
194871.88079158554
303168.730180605
461964.1259641714
644122.2614219295
809449.0088424247
930839.556694773
1.0064786012543951e6
1.0497337822843522e6
1.0747684103297421e6
1.090777568465405e6
1.1024929915797366e6
1.1120445028506177e6
1.1203080899577704e6
1.1276176031254802e6
1.1340883073007232e6
1.139751549324794e6
1.1446100130331276e6
1.1486742524724451e6
1.1521386381644518e6
1.157229606597118e6
1.1872797797191183e6
100000.00000000345
100000.00000001081
100000.00000003491
100000.00000011148
100000.00000035684
100000.00000114195
100000.00000365233
100000.00001167263
100000.00003727346
100000.00011892316
100000.00037911162
100000.0012075338
100000.00384290722
100000.0122192546
100000.03881936574
100000.12321519633
100000.3907362878
100001.23792984727
100003.91819739544
100012.38884622915
100039.1275178183
100123.40270000533
100388.36527132649
101217.13837225156
103777.86460590953
111457.32894815151
132911.992497826
184741.12496241927
285264.4681455503
437252.6155101417
616953.7906800379
784891.4560619692
911485.0312793037
991900.022558522
1.0381850169239438e6
1.0646546156874609e6
1.081078710727915e6
1.0926544065644874e6
1.1017851021984492e6
1.1094863848775818e6
1.1161602063390345e6
1.1219585943768069e6
1.1269410545341554e6
1.1311435532256276e6
1.1346287186931153e6
1.1377158579346528e6
1.1431223968970345e6
1.175597177720135e6
100000.00000000311
100000.00000000992
100000.00000003153
100000.00000010128
100000.00000032352
100000.00000103377
100000.00000330085
100000.00001053029
100000.00003356219
100000.00010687138
100000.00033999192
100000.00108060575
100000.00343124908
100000.01088469861
100000.03449460551
100000.10920594491
100000.34537379375
100001.09110246866
100003.44314784453
100010.85256154925
100034.16224934744
100107.37154554068
100336.72545705043
101051.77815415038
103256.4592586253
109875.55308708023
128533.69576284046
174584.1674175695
266722.11441717495
410830.04501427687
587029.1593517376
757148.1748187025
889251.1737238746
975085.8626613211
1.0249638708724466e6
1.053199726870401e6
1.0701638127675431e6
1.0815844305244102e6
1.0901885145197276e6
1.0971584176257998e6
1.1029755236074794e6
1.1078317896165482e6
1.1118173215781837e6
1.115005806759367e6
1.1175337303318547e6
1.1199061682141277e6
1.1255222359520295e6
1.16134004853389e6
100000.00000000274
100000.00000000896
100000.00000002846
100000.00000009108
100000.00000029086
100000.00000092766
100000.0000029563
100000.00000941199
100000.00002993623
100000.00009511973
100000.00030192612
100000.00095736886
100000.00303247877
100000.00959502454
100000.03032579727
100000.09573751024
100000.30188349698
100000.95074622596
100002.99043379274
100009.39326112704
100029.4618710992
100092.24919638544
100288.18330436833
100896.80228094332
102768.43012817857
108390.1570019552
124365.14448947232
164641.36161383716
247919.22743365864
383070.861495088
554531.0183711762
726136.549772545
863892.3256050065
955781.0584579763
1.009885106935293e6
1.0402915571770087e6
1.0579671955033808e6
1.069234890423089e6
1.0771991179929255e6
1.083238060182349e6
1.0879216000579093e6
1.0914782819116004e6
1.0940176389175109e6
1.0956511887707491e6
1.0965951315355776e6
1.0976079846211385e6
1.1030825653854292e6
1.1436543691703402e6
100000.00000000247
100000.00000000808
100000.00000002538
100000.00000008129
100000.00000025898
100000.0000008251
100000.00000262365
100000.00000833525
100000.00002645228
100000.00008385362
100000.0002655179
100000.00083978308
100000.00265295955
100000.00837086994
100000.02637979249
100000.08302614896
100000.26096387218
100000.81911301026
100002.56730017684
100008.03419756016
100025.10080949512
100078.2732107057
100243.49554753292
100754.62400890891
102321.53891186549
107026.64188422053
120489.71295865222
155135.4500603732
229251.66555024293
354420.4098150132
519736.7695023684
691838.5157824162
835171.763655079
933705.6287835299
992736.9014978417
1.0258058012776332e6
1.0444281342361103e6
1.0555772097919367e6
1.0627920875532317e6
1.067676977972105e6
1.0708938580274608e6
1.0726924836403874e6
1.073178169247517e6
1.0724537756882196e6
1.0707858698995963e6
1.0692264375130297e6
1.0735890696348771e6
1.1208880402125919e6
100000.00000000224
100000.00000000719
100000.00000002263
100000.00000007196
100000.00000022896
100000.00000072714
100000.0000023076
100000.00000731448
100000.00002315677
100000.00007322304
100000.00023125044
100000.00072940494
100000.00229769023
100000.00722825779
100000.02270782967
100000.07123528654
100000.22313459995
100000.69784963514
100002.1789446223
100006.7916994804
100021.13009540069
100065.60223545165
100203.15378996074
100626.7741812045
101920.68041807521
105801.74914098646
116968.9151634485
146259.68420289675
211117.14577980957
325389.4339329846
483033.3850051709
654327.4060190639
802881.6704597899
908560.0171481193
973277.8979788097
1.0096029333464707e6
1.0294922261860229e6
1.040610690760132e6
1.0469905616104944e6
1.0504931798345353e6
1.0518728817709726e6
1.0513711539866307e6
1.0490149276508775e6
1.0447957270854124e6
1.0389008534707014e6
1.0325810342786524e6
1.0334164624352299e6
1.089044488339103e6
100000.000000002
100000.00000000632
100000.00000001995
100000.00000006324
100000.00000020054
100000.0000006355
100000.00000201171
100000.00000636055
100000.00002008516
100000.00006334118
100000.00019948387
100000.00062737567
100000.00197027609
100000.00617853126
100000.01934544063
100000.06047564305
100000.18873857036
100000.5880102283
100001.82857918835
100005.67544986519
100017.57854453308
100054.32078742207
100167.40297244603
100513.96756330141
101568.08669628338
104723.83005299307
113841.06493543615
138167.1651236679
193894.62647262885
296540.49278314767
444926.7812677784
613797.1584981233
766870.3113958773
880035.4973143348
951234.8962505918
991522.9819882516
1.0131098384514116e6
1.0243686081374143e6
1.0298825712241356e6
1.0318096705466748e6
1.0309954093274988e6
1.0276146437321408e6
1.0214912664697036e6
1.0122820789777152e6
999738.211241667
984814.9023857426
976236.1124983332
1.0337752044833747e6
100000.00000000176
100000.00000000549
100000.00000001746
100000.000000055
100000.00000017401
100000.00000055044
100000.00000173827
100000.00000548156
100000.0000172626
100000.00005428509
100000.00017045751
100000.00053443258
100000.00167297595
100000.00522855084
100000.01631323696
100000.0508083145
100000.15795377914
100000.49010157304
100001.51760142135
100004.68912527544
100014.45512419225
100044.44792165176
100136.27260477755
100416.21172475645
101263.6785828857
103793.7664650269
111121.8942127273
130962.99315372201
177921.03012341404
268465.0593365972
406042.1198839703
570590.8925644343
727076.6920832456
847831.633627888
926302.2486155153
971377.4685793022
995228.9418578658
1.0069164046707618e6
1.011635420592689e6
1.0118902173785574e6
1.0086254890062922e6
1.0018801710492469e6
991065.8334014058
974926.1337651482
951120.0490399024
915138.6718685812
857704.260255613
752796.67679
100000.0000000016
100000.00000000479
100000.0000000151
100000.00000004758
100000.00000014993
100000.00000047275
100000.0000014889
100000.00000468218
100000.00001470305
100000.00004609759
100000.00014429708
100000.00045093999
100000.00140681474
100000.00438110117
100000.0136183869
100000.04225012212
100000.13081262987
100000.40415253963
100001.24584320183
100003.83128449775
100011.7521137812
100035.94841312125
100109.6159833616
100332.94207396712
101005.51039868828
103006.27942221145
108806.95671917277
124700.64560687372
163467.98162032297
241751.24174406176
367111.297470476
525224.3012409145
683571.6846464515
811682.9879317001
898144.9316412905
948938.6854183365
975780.9926791213
988340.4200300323
992486.5355897177
991151.8689552655
985442.6967505517
975326.6497469147
959924.6137274273
937428.8660579912
904633.323935622
855967.0022514289
781948.8377233358
666210.6180022871
100000.00000000131
100000.0000000041
100000.00000001294
100000.00000004064
100000.00000012807
100000.00000040262
100000.00000126426
100000.00000396445
100000.0000124115
100000.00003879117
100000.00012102853
100000.00037693244
100000.00117173945
100000.00363544401
100000.01125656714
100000.03478047485
100000.10722601708
100000.3297984074
100001.01186534233
100003.09639538721
100009.44867449247
100028.74512481363
100087.15282197336
100263.16728052786
100790.25366369606
102351.4418653902
106875.37400730448
119383.39395667822
150722.21030939434
216943.87759758582
328944.56892933365
478397.8756545576
636602.619576606
771397.0057091261
866408.2488787175
923926.9356253564
954655.3444338874
968712.5840570047
972689.8220326077
970055.5463747955
962191.6788725641
949144.8241995584
930000.3126562438
902912.6642985545
864883.6646614968
811424.0593686627
736526.2084689953
633806.4875335593
100000.00000000116
100000.0000000036
100000.00000001106
100000.00000003452
100000.00000010848
100000.00000034005
100000.00000106457
100000.0000033278
100000.00001038516
100000.00003235166
100000.00010059246
100000.0003121692
100000.00096680509
100000.00298796139
100000.0092141803
100000.02834901956
100000.08700966995
100000.26637143557
100000.81326839159
100002.47589920429
100007.51448577362
100022.731399726
100068.51134042846
100205.61148217357
100613.67198790812
101816.21962213737
105294.31433764225
114970.61613385678
139773.56983996564
194501.070158549
292385.0113300316
430991.21101548825
586635.7440808815
726904.1382612134
830739.1320862827
896001.4936192143
931670.9891450045
948045.413968864
952447.2669260398
948992.2880418614
939475.6482569386
924187.0128521197
902401.1822845481
872567.5825159013
832346.7186661209
778710.8952688132
708534.0960348707
620304.4697191716
100000.00000000093
100000.00000000306
100000.00000000942
100000.00000002899
100000.0000000912
100000.00000028478
100000.00000088886
100000.00000276943
100000.00000861472
100000.00002674453
100000.00008286159
100000.00025619175
100000.00079037201
100000.0024328267
100000.00747064466
100000.02288342165
100000.06991055541
100000.21299027925
100000.64699479815
100001.95922942823
100005.91317214433
100017.78255792634
100053.2667448784
100158.84284789755
100471.04993992159
101385.89583298466
104023.57173604215
111387.83810809744
130613.79512876496
174753.60509588988
258247.48506103532
384033.14660229994
534387.9617766313
678318.687809436
790824.2569644087
864762.2375234863
906553.2784865474
926253.2332979615
931856.0801540746
928216.4897407742
917678.7282056831
900918.9918011538
877553.3157082137
846474.4138246732
806070.3369180223
754528.5041765402
690510.7131053434
614472.7404512238
100000.00000000086
100000.0000000025
100000.00000000796
100000.00000002439
100000.00000007596
100000.00000023647
100000.00000073592
100000.00000228551
100000.00000708527
100000.00002191812
100000.00006765785
100000.00020838146
100000.00064029967
100000.00196266099
100000.00600059502
100000.01829675055
100000.0556315893
100000.16864247587
100000.50960356338
100001.53472368022
100004.60532202525
100013.76586041797
100040.97404008609
100121.38167453364
100357.5514548386
101045.2780561246
103019.71919224803
108538.62171614025
123147.00534340796
157875.25394929078
227247.70361878944
338643.8816326018
480836.7675735574
626004.457420911
746448.543579466