# vtk DataFile Version 2.0
JuliaCFD
ASCII
DATASET UNSTRUCTURED_GRID

POINTS 32898 float
0.0 0.0 -0.05
0.0125 0.0 -0.05
0.025 0.0 -0.05
0.0375 0.0 -0.05
0.05 0.0 -0.05
0.0625 0.0 -0.05
0.075 0.0 -0.05
0.0875 0.0 -0.05
0.1 0.0 -0.05
0.1125 0.0 -0.05
0.125 0.0 -0.05
0.1375 0.0 -0.05
0.15 0.0 -0.05
0.1625 0.0 -0.05
0.175 0.0 -0.05
0.1875 0.0 -0.05
0.2 0.0 -0.05
0.2125 0.0 -0.05
0.225 0.0 -0.05
0.2375 0.0 -0.05
0.25 0.0 -0.05
0.2625 0.0 -0.05
0.275 0.0 -0.05
0.2875 0.0 -0.05
0.3 0.0 -0.05
0.3125 0.0 -0.05
0.325 0.0 -0.05
0.3375 0.0 -0.05
0.35 0.0 -0.05
0.3625 0.0 -0.05
0.375 0.0 -0.05
0.3875 0.0 -0.05
0.4 0.0 -0.05
0.4125 0.0 -0.05
0.425 0.0 -0.05
0.4375 0.0 -0.05
0.45 0.0 -0.05
0.4625 0.0 -0.05
0.475 0.0 -0.05
0.4875 0.0 -0.05
0.5 0.0 -0.05
0.5125 0.0 -0.05
0.525 0.0 -0.05
0.5375 0.0 -0.05
0.55 0.0 -0.05
0.5625 0.0 -0.05
0.575 0.0 -0.05
0.5875 0.0 -0.05
0.6 0.0 -0.05
0.0 0.0125 -0.05
0.0125 0.0125 -0.05
0.025 0.0125 -0.05
0.0375 0.0125 -0.05
0.05 0.0125 -0.05
0.0625 0.0125 -0.05
0.075 0.0125 -0.05
0.0875 0.0125 -0.05
0.1 0.0125 -0.05
0.1125 0.0125 -0.05
0.125 0.0125 -0.05
0.1375 0.0125 -0.05
0.15 0.0125 -0.05
0.1625 0.0125 -0.05
0.175 0.0125 -0.05
0.1875 0.0125 -0.05
0.2 0.0125 -0.05
0.2125 0.0125 -0.05
0.225 0.0125 -0.05
0.2375 0.0125 -0.05
0.25 0.0125 -0.05
0.2625 0.0125 -0.05
0.275 0.0125 -0.05
0.2875 0.0125 -0.05
0.3 0.0125 -0.05
0.3125 0.0125 -0.05
0.325 0.0125 -0.05
0.3375 0.0125 -0.05
0.35 0.0125 -0.05
0.3625 0.0125 -0.05
0.375 0.0125 -0.05
0.3875 0.0125 -0.05
0.4 0.0125 -0.05
0.4125 0.0125 -0.05
0.425 0.0125 -0.05
0.4375 0.0125 -0.05
0.45 0.0125 -0.05
0.4625 0.0125 -0.05
0.475 0.0125 -0.05
0.4875 0.0125 -0.05
0.5 0.0125 -0.05
0.5125 0.0125 -0.05
0.525 0.0125 -0.05
0.5375 0.0125 -0.05
0.55 0.0125 -0.05
0.5625 0.0125 -0.05
0.575 0.0125 -0.05
0.5875 0.0125 -0.05
0.6 0.0125 -0.05
0.0 0.025 -0.05
0.0125 0.025 -0.05
0.025 0.025 -0.05
0.0375 0.025 -0.05
0.05 0.025 -0.05
0.0625 0.025 -0.05
0.075 0.025 -0.05
0.0875 0.025 -0.05
0.1 0.025 -0.05
0.1125 0.025 -0.05
0.125 0.025 -0.05
0.1375 0.025 -0.05
0.15 0.025 -0.05
0.1625 0.025 -0.05
0.175 0.025 -0.05
0.1875 0.025 -0.05
0.2 0.025 -0.05
0.2125 0.025 -0.05
0.225 0.025 -0.05
0.2375 0.025 -0.05
0.25 0.025 -0.05
0.2625 0.025 -0.05
0.275 0.025 -0.05
0.2875 0.025 -0.05
0.3 0.025 -0.05
0.3125 0.025 -0.05
0.325 0.025 -0.05
0.3375 0.025 -0.05
0.35 0.025 -0.05
0.3625 0.025 -0.05
0.375 0.025 -0.05
0.3875 0.025 -0.05
0.4 0.025 -0.05
0.4125 0.025 -0.05
0.425 0.025 -0.05
0.4375 0.025 -0.05
0.45 0.025 -0.05
0.4625 0.025 -0.05
0.475 0.025 -0.05
0.4875 0.025 -0.05
0.5 0.025 -0.05
0.5125 0.025 -0.05
0.525 0.025 -0.05
0.5375 0.025 -0.05
0.55 0.025 -0.05
0.5625 0.025 -0.05
0.575 0.025 -0.05
0.5875 0.025 -0.05
0.6 0.025 -0.05
0.0 0.0375 -0.05
0.0125 0.0375 -0.05
0.025 0.0375 -0.05
0.0375 0.0375 -0.05
0.05 0.0375 -0.05
0.0625 0.0375 -0.05
0.075 0.0375 -0.05
0.0875 0.0375 -0.05
0.1 0.0375 -0.05
0.1125 0.0375 -0.05
0.125 0.0375 -0.05
0.1375 0.0375 -0.05
0.15 0.0375 -0.05
0.1625 0.0375 -0.05
0.175 0.0375 -0.05
0.1875 0.0375 -0.05
0.2 0.0375 -0.05
0.2125 0.0375 -0.05
0.225 0.0375 -0.05
0.2375 0.0375 -0.05
0.25 0.0375 -0.05
0.2625 0.0375 -0.05
0.275 0.0375 -0.05
0.2875 0.0375 -0.05
0.3 0.0375 -0.05
0.3125 0.0375 -0.05
0.325 0.0375 -0.05
0.3375 0.0375 -0.05
0.35 0.0375 -0.05
0.3625 0.0375 -0.05
0.375 0.0375 -0.05
0.3875 0.0375 -0.05
0.4 0.0375 -0.05
0.4125 0.0375 -0.05
0.425 0.0375 -0.05
0.4375 0.0375 -0.05
0.45 0.0375 -0.05
0.4625 0.0375 -0.05
0.475 0.0375 -0.05
0.4875 0.0375 -0.05
0.5 0.0375 -0.05
0.5125 0.0375 -0.05
0.525 0.0375 -0.05
0.5375 0.0375 -0.05
0.55 0.0375 -0.05
0.5625 0.0375 -0.05
0.575 0.0375 -0.05
0.5875 0.0375 -0.05
0.6 0.0375 -0.05
0.0 0.05 -0.05
0.0125 0.05 -0.05
0.025 0.05 -0.05
0.0375 0.05 -0.05
0.05 0.05 -0.05
0.0625 0.05 -0.05
0.075 0.05 -0.05
0.0875 0.05 -0.05
0.1 0.05 -0.05
0.1125 0.05 -0.05
0.125 0.05 -0.05
0.1375 0.05 -0.05
0.15 0.05 -0.05
0.1625 0.05 -0.05
0.175 0.05 -0.05
0.1875 0.05 -0.05
0.2 0.05 -0.05
0.2125 0.05 -0.05
0.225 0.05 -0.05
0.2375 0.05 -0.05
0.25 0.05 -0.05
0.2625 0.05 -0.05
0.275 0.05 -0.05
0.2875 0.05 -0.05
0.3 0.05 -0.05
0.3125 0.05 -0.05
0.325 0.05 -0.05
0.3375 0.05 -0.05
0.35 0.05 -0.05
0.3625 0.05 -0.05
0.375 0.05 -0.05
0.3875 0.05 -0.05
0.4 0.05 -0.05
0.4125 0.05 -0.05
0.425 0.05 -0.05
0.4375 0.05 -0.05
0.45 0.05 -0.05
0.4625 0.05 -0.05
0.475 0.05 -0.05
0.4875 0.05 -0.05
0.5 0.05 -0.05
0.5125 0.05 -0.05
0.525 0.05 -0.05
0.5375 0.05 -0.05
0.55 0.05 -0.05
0.5625 0.05 -0.05
0.575 0.05 -0.05
0.5875 0.05 -0.05
0.6 0.05 -0.05
0.0 0.0625 -0.05
0.0125 0.0625 -0.05
0.025 0.0625 -0.05
0.0375 0.0625 -0.05
0.05 0.0625 -0.05
0.0625 0.0625 -0.05
0.075 0.0625 -0.05
0.0875 0.0625 -0.05
0.1 0.0625 -0.05
0.1125 0.0625 -0.05
0.125 0.0625 -0.05
0.1375 0.0625 -0.05
0.15 0.0625 -0.05
0.1625 0.0625 -0.05
0.175 0.0625 -0.05
0.1875 0.0625 -0.05
0.2 0.0625 -0.05
0.2125 0.0625 -0.05
0.225 0.0625 -0.05
0.2375 0.0625 -0.05
0.25 0.0625 -0.05
0.2625 0.0625 -0.05
0.275 0.0625 -0.05
0.2875 0.0625 -0.05
0.3 0.0625 -0.05
0.3125 0.0625 -0.05
0.325 0.0625 -0.05
0.3375 0.0625 -0.05
0.35 0.0625 -0.05
0.3625 0.0625 -0.05
0.375 0.0625 -0.05
0.3875 0.0625 -0.05
0.4 0.0625 -0.05
0.4125 0.0625 -0.05
0.425 0.0625 -0.05
0.4375 0.0625 -0.05
0.45 0.0625 -0.05
0.4625 0.0625 -0.05
0.475 0.0625 -0.05
0.4875 0.0625 -0.05
0.5 0.0625 -0.05
0.5125 0.0625 -0.05
0.525 0.0625 -0.05
0.5375 0.0625 -0.05
0.55 0.0625 -0.05
0.5625 0.0625 -0.05
0.575 0.0625 -0.05
0.5875 0.0625 -0.05
0.6 0.0625 -0.05
0.0 0.075 -0.05
0.0125 0.075 -0.05
0.025 0.075 -0.05
0.0375 0.075 -0.05
0.05 0.075 -0.05
0.0625 0.075 -0.05
0.075 0.075 -0.05
0.0875 0.075 -0.05
0.1 0.075 -0.05
0.1125 0.075 -0.05
0.125 0.075 -0.05
0.1375 0.075 -0.05
0.15 0.075 -0.05
0.1625 0.075 -0.05
0.175 0.075 -0.05
0.1875 0.075 -0.05
0.2 0.075 -0.05
0.2125 0.075 -0.05
0.225 0.075 -0.05
0.2375 0.075 -0.05
0.25 0.075 -0.05
0.2625 0.075 -0.05
0.275 0.075 -0.05
0.2875 0.075 -0.05
0.3 0.075 -0.05
0.3125 0.075 -0.05
0.325 0.075 -0.05
0.3375 0.075 -0.05
0.35 0.075 -0.05
0.3625 0.075 -0.05
0.375 0.075 -0.05
0.3875 0.075 -0.05
0.4 0.075 -0.05
0.4125 0.075 -0.05
0.425 0.075 -0.05
0.4375 0.075 -0.05
0.45 0.075 -0.05
0.4625 0.075 -0.05
0.475 0.075 -0.05
0.4875 0.075 -0.05
0.5 0.075 -0.05
0.5125 0.075 -0.05
0.525 0.075 -0.05
0.5375 0.075 -0.05
0.55 0.075 -0.05
0.5625 0.075 -0.05
0.575 0.075 -0.05
0.5875 0.075 -0.05
0.6 0.075 -0.05
0.0 0.0875 -0.05
0.0125 0.0875 -0.05
0.025 0.0875 -0.05
0.0375 0.0875 -0.05
0.05 0.0875 -0.05
0.0625 0.0875 -0.05
0.075 0.0875 -0.05
0.0875 0.0875 -0.05
0.1 0.0875 -0.05
0.1125 0.0875 -0.05
0.125 0.0875 -0.05
0.1375 0.0875 -0.05
0.15 0.0875 -0.05
0.1625 0.0875 -0.05
0.175 0.0875 -0.05
0.1875 0.0875 -0.05
0.2 0.0875 -0.05
0.2125 0.0875 -0.05
0.225 0.0875 -0.05
0.2375 0.0875 -0.05
0.25 0.0875 -0.05
0.2625 0.0875 -0.05
0.275 0.0875 -0.05
0.2875 0.0875 -0.05
0.3 0.0875 -0.05
0.3125 0.0875 -0.05
0.325 0.0875 -0.05
0.3375 0.0875 -0.05
0.35 0.0875 -0.05
0.3625 0.0875 -0.05
0.375 0.0875 -0.05
0.3875 0.0875 -0.05
0.4 0.0875 -0.05
0.4125 0.0875 -0.05
0.425 0.0875 -0.05
0.4375 0.0875 -0.05
0.45 0.0875 -0.05
0.4625 0.0875 -0.05
0.475 0.0875 -0.05
0.4875 0.0875 -0.05
0.5 0.0875 -0.05
0.5125 0.0875 -0.05
0.525 0.0875 -0.05
0.5375 0.0875 -0.05
0.55 0.0875 -0.05
0.5625 0.0875 -0.05
0.575 0.0875 -0.05
0.5875 0.0875 -0.05
0.6 0.0875 -0.05
0.0 0.1 -0.05
0.0125 0.1 -0.05
0.025 0.1 -0.05
0.0375 0.1 -0.05
0.05 0.1 -0.05
0.0625 0.1 -0.05
0.075 0.1 -0.05
0.0875 0.1 -0.05
0.1 0.1 -0.05
0.1125 0.1 -0.05
0.125 0.1 -0.05
0.1375 0.1 -0.05
0.15 0.1 -0.05
0.1625 0.1 -0.05
0.175 0.1 -0.05
0.1875 0.1 -0.05
0.2 0.1 -0.05
0.2125 0.1 -0.05
0.225 0.1 -0.05
0.2375 0.1 -0.05
0.25 0.1 -0.05
0.2625 0.1 -0.05
0.275 0.1 -0.05
0.2875 0.1 -0.05
0.3 0.1 -0.05
0.3125 0.1 -0.05
0.325 0.1 -0.05
0.3375 0.1 -0.05
0.35 0.1 -0.05
0.3625 0.1 -0.05
0.375 0.1 -0.05
0.3875 0.1 -0.05
0.4 0.1 -0.05
0.4125 0.1 -0.05
0.425 0.1 -0.05
0.4375 0.1 -0.05
0.45 0.1 -0.05
0.4625 0.1 -0.05
0.475 0.1 -0.05
0.4875 0.1 -0.05
0.5 0.1 -0.05
0.5125 0.1 -0.05
0.525 0.1 -0.05
0.5375 0.1 -0.05
0.55 0.1 -0.05
0.5625 0.1 -0.05
0.575 0.1 -0.05
0.5875 0.1 -0.05
0.6 0.1 -0.05
0.0 0.1125 -0.05
0.0125 0.1125 -0.05
0.025 0.1125 -0.05
0.0375 0.1125 -0.05
0.05 0.1125 -0.05
0.0625 0.1125 -0.05
0.075 0.1125 -0.05
0.0875 0.1125 -0.05
0.1 0.1125 -0.05
0.1125 0.1125 -0.05
0.125 0.1125 -0.05
0.1375 0.1125 -0.05
0.15 0.1125 -0.05
0.1625 0.1125 -0.05
0.175 0.1125 -0.05
0.1875 0.1125 -0.05
0.2 0.1125 -0.05
0.2125 0.1125 -0.05
0.225 0.1125 -0.05
0.2375 0.1125 -0.05
0.25 0.1125 -0.05
0.2625 0.1125 -0.05
0.275 0.1125 -0.05
0.2875 0.1125 -0.05
0.3 0.1125 -0.05
0.3125 0.1125 -0.05
0.325 0.1125 -0.05
0.3375 0.1125 -0.05
0.35 0.1125 -0.05
0.3625 0.1125 -0.05
0.375 0.1125 -0.05
0.3875 0.1125 -0.05
0.4 0.1125 -0.05
0.4125 0.1125 -0.05
0.425 0.1125 -0.05
0.4375 0.1125 -0.05
0.45 0.1125 -0.05
0.4625 0.1125 -0.05
0.475 0.1125 -0.05
0.4875 0.1125 -0.05
0.5 0.1125 -0.05
0.5125 0.1125 -0.05
0.525 0.1125 -0.05
0.5375 0.1125 -0.05
0.55 0.1125 -0.05
0.5625 0.1125 -0.05
0.575 0.1125 -0.05
0.5875 0.1125 -0.05
0.6 0.1125 -0.05
0.0 0.125 -0.05
0.0125 0.125 -0.05
0.025 0.125 -0.05
0.0375 0.125 -0.05
0.05 0.125 -0.05
0.0625 0.125 -0.05
0.075 0.125 -0.05
0.0875 0.125 -0.05
0.1 0.125 -0.05
0.1125 0.125 -0.05
0.125 0.125 -0.05
0.1375 0.125 -0.05
0.15 0.125 -0.05
0.1625 0.125 -0.05
0.175 0.125 -0.05
0.1875 0.125 -0.05
0.2 0.125 -0.05
0.2125 0.125 -0.05
0.225 0.125 -0.05
0.2375 0.125 -0.05
0.25 0.125 -0.05
0.2625 0.125 -0.05
0.275 0.125 -0.05
0.2875 0.125 -0.05
0.3 0.125 -0.05
0.3125 0.125 -0.05
0.325 0.125 -0.05
0.3375 0.125 -0.05
0.35 0.125 -0.05
0.3625 0.125 -0.05
0.375 0.125 -0.05
0.3875 0.125 -0.05
0.4 0.125 -0.05
0.4125 0.125 -0.05
0.425 0.125 -0.05
0.4375 0.125 -0.05
0.45 0.125 -0.05
0.4625 0.125 -0.05
0.475 0.125 -0.05
0.4875 0.125 -0.05
0.5 0.125 -0.05
0.5125 0.125 -0.05
0.525 0.125 -0.05
0.5375 0.125 -0.05
0.55 0.125 -0.05
0.5625 0.125 -0.05
0.575 0.125 -0.05
0.5875 0.125 -0.05
0.6 0.125 -0.05
0.0 0.1375 -0.05
0.0125 0.1375 -0.05
0.025 0.1375 -0.05
0.0375 0.1375 -0.05
0.05 0.1375 -0.05
0.0625 0.1375 -0.05
0.075 0.1375 -0.05
0.0875 0.1375 -0.05
[...]
CELL_DATA 16128
SCALARS P float 1
LOOKUP_TABLE default
100000.00000005637
99999.999999845
100000.00000042046
99999.99999885299
100000.00000312242
99999.99999149404
100000.00002316175
99999.99993692838
100000.00017171988
99999.99953251959
100000.00127245372
99999.99653696598
100000.00942322038
99999.97436327706
100000.0697325231
99999.81037181076
100000.51551474941
99998.59910270375
100003.80408587493
99989.69902566643
100027.32990103368
99940.55640664489
99810.00638766824
116983.7309412412
250762.464428005
539489.860668356
836545.8302055673
992363.8667520026
1.0378806952290358e6
1.0536803641939752e6
1.0655604972970334e6
1.0767979901685882e6
1.0876051889218618e6
1.0979695407230207e6
1.1078771316900807e6
1.1173162325809323e6
1.1262722975818936e6
1.13472619238611e6
1.142650578520397e6
1.1500166353125535e6
1.1567736544697594e6
1.1629105915963799e6
1.168278675274999e6
1.17312104378427e6
1.176514152360385e6
1.1809986844827768e6
1.1788306659855598e6
1.1928054728263293e6
100000.00000005556
99999.99999984763
100000.00000041345
99999.99999887162
100000.00000307211
99999.99999162978
100000.0000227966
99999.99993790928
100000.00016908822
99999.9995395732
100000.00125357004
99999.99658748116
100000.00928817785
99999.97472407232
100000.06876952376
99999.81293611978
100000.50872540646
99998.61684523372
100003.7590084113
99989.80660415646
100027.11084245099
99940.73995479534
99811.87348393947
116538.8441959553
249338.9320182154
538813.0720385878
839301.6952184167
998583.2187730167
1.0458132785072412e6
1.0623545671268085e6
1.074637656489648e6
1.0861416591911037e6
1.097162617135145e6
1.1077276085125417e6
1.1178403835574507e6
1.127495590709465e6
1.136679266283623e6
1.1453696972267558e6
1.1535349705867453e6
1.161140058047385e6
1.1681266984326437e6
1.1744745460039482e6
1.1800250437673319e6
1.1850089858164098e6
1.188493185024757e6
1.193017192501509e6
1.1907749947417204e6
1.2049547907317928e6
100000.0000000533
99999.99999985378
100000.00000039717
99999.99999891645
100000.00000295155
99999.99999195502
100000.0000219212
99999.99994026197
100000.0001627807
99999.99955644435
100000.00120857003
99999.99670711903
100000.00897133225
99999.97555928635
100000.0665804597
99999.81863297657
100000.49402982982
99998.65434586178
100003.66453303222
99990.04085428483
100026.54601702314
99941.86719188308
99812.81858729367
115499.27622600325
244873.31602087265
531604.5477009643
832767.0107800647
994289.3650355516
1.0424719524943942e6
1.0590521483021888e6
1.0712013360602073e6
1.0825483955594231e6
1.0934018737817828e6
1.1037877904137673e6
1.1137094621027885e6
1.1231623647378471e6
1.1321342293199024e6
1.1406056180791764e6
1.1485475053843248e6
1.15592812228721e6
1.1626938027221614e6
1.1688278651594236e6
1.1741814856941907e6
1.178982492258028e6
1.1823304887665298e6
1.186715978207091e6
1.1844058835920026e6
1.1987769001996294e6
100000.00000004977
99999.99999986296
100000.00000037208
99999.9999989843
100000.00000276795
99999.99999245224
100000.000020578
99999.99994388626
100000.00015301794
99999.99958269573
100000.00113813144
99999.99689568029
100000.00846788439
99999.9768995267
100000.06302412714
99999.82803650753
100000.46925751549
99998.7193612315
100003.494505059
99990.48334913811
100025.41552053098
99944.27081596067
99816.60656027863
113931.17984077682
237899.73233677642
520546.8397456808
823750.5588552018
990015.8795229931
1.0404706118746179e6
1.0575199954443637e6
1.0697427743099793e6
1.0810927896282296e6
1.0919267237681584e6
1.1022828724242921e6
1.1121714730366434e6
1.1215929602102626e6
1.130538885866847e6
1.138992842538081e6
1.1469283346257478e6
1.1543152209397624e6
1.1611014930290773e6
1.1672687621738396e6
1.1726713411505597e6
1.177521507610852e6
1.1809417662220777e6
1.1853567713649266e6
1.1830681429819306e6
1.1978130802591424e6
100000.00000004549
99999.99999987529
100000.00000033915
99999.999999074
100000.00000252352
99999.99999311712
100000.0000187721
99999.9999487873
100000.00013973178
99999.9996186704
100000.00104084739
99999.9971583959
100000.00775948886
99999.97880659148
100000.05789895085
99999.84178536618
100000.43244401782
99998.81773812731
100003.23218986653
99991.17975950913
100023.6045899809
99948.12749904522
99826.46102415782
111966.4993359546
228652.10306898854
505537.2545592604
811285.3658292401
983955.8382832877
1.0374780530695146e6
1.0550406319701946e6
1.0672262939211049e6
1.0784632775199376e6
1.0891672179820854e6
1.0993840552576755e6
1.1091272351538192e6
1.1183999632363466e6
1.1271964414681997e6
1.1355027956296147e6
1.1432951040117184e6
1.1505453235649902e6
1.1572042771692243e6
1.1632532959816493e6
1.1685534260767498e6
1.173303298608566e6
1.1766598318015959e6
1.180981252793315e6
1.1786234753613349e6
1.193778494857118e6
100000.00000004016
99999.99999989005
100000.00000029911
99999.99999918422
100000.00000222295
99999.99999393823
100000.0000165296
99999.99995490907
100000.00012303072
99999.99966420709
100000.00091677005
99999.99749624397
100000.00684026828
99999.98130555502
100000.05111142999
99999.86020319085
100000.38252129983
99998.9528914883
100002.86687405316
99992.16351880238
100021.00995028102
99953.71511712945
99843.77166065866
109769.44669748262
217448.88883997657
486690.31991297717
795231.0601236871
976112.8286871145
1.0337963913313601e6
1.0521026718971035e6
1.0642572750997217e6
1.0753586747543681e6
1.0859082627672406e6
1.0959618899311142e6
1.1055365864505332e6
1.1146388568313734e6
1.123266229703268e6
1.1314081041374702e6
1.1390438872737503e6
1.1461482901375506e6
1.1526755338734693e6
1.1586067365001445e6
1.1638098674714484e6
1.1684684018115732e6
1.1717742498569614e6
1.176017772431568e6
1.173590411559022e6
1.1892764128345742e6
100000.000000034
99999.99999990688
100000.00000025326
99999.99999931062
100000.00000187653
99999.99999488975
100000.00001391913
99999.99996207283
100000.00010337456
99999.999718133
100000.00076885139
99999.99790190591
100000.00572801167
99999.98435435296
100000.04275706733
99999.88308723304
100000.31986667671
99999.12433700489
100002.39815339536
99993.44138295735
100017.59383256827
99961.23254263797
99867.51623814862
107517.29303842405
204682.40360880844
464171.82537803246
775333.9987528627
966166.63264474
1.0292564571271561e6
1.0485926674450603e6
1.0607157283918133e6
1.071638362850481e6
1.0819848931304815e6
1.09182412641769e6
1.1011763050660312e6
1.1100508710545506e6
1.118448535589699e6
1.1263620154647436e6
1.133774275378527e6
1.1406632000791493e6
1.1469871042680636e6
1.1527278760656451e6
1.157762056658127e6
1.1622599999571843e6
1.1654523645175237e6
1.1695674576959698e6
1.167017781816195e6
1.183344111370631e6
100000.00000002769
99999.9999999249
100000.0000002037
99999.99999944736
100000.00000149988
99999.99999592722
100000.00001106036
99999.99996995293
100000.00008165119
99999.99977803357
100000.00060364326
99999.99835765183
100000.00447053442
99999.98782456639
100000.03317892313
99999.90952733795
100000.24687314834
99999.32585747971
100001.84192197553
99994.9737535959
100013.44743764531
99970.60785774754
99894.33482822984
105382.4527055622
190816.26668267543
438229.1749390915
751345.1669411028
953772.512742617
1.0237302967093494e6
1.0444949534412207e6
1.056614102450064e6
1.0673233669599837e6
1.0774228877199048e6
1.0870000483224727e6
1.0960783304987727e6
1.1046698151273818e6
1.1127782413594543e6
1.1203996709093438e6
1.1275208627686035e6
1.1341233862890683e6
1.1401704864486195e6
1.1456461780595197e6
1.1504373605920027e6
1.1547041953286007e6
1.1577188249887137e6
1.161655670380241e6
1.1589257396648275e6
1.1760363598081528e6
100000.00000002117
99999.99999994335
100000.00000015296
99999.99999958697
100000.00000111452
99999.9999969917
100000.0000081192
99999.99997808484
100000.00005915601
99999.9998402941
100000.00043123426
99999.9988353419
100000.00314626878
99999.99149781714
100000.02298420914
99999.9378379957
100000.16820960087
99999.54455232844
100001.23371083566
99996.66333666879
100008.82876888971
99981.35146255781
99919.58693224697
103513.15338236195
176377.89707426645
409211.44801896776
723028.1943700357
938511.0789793622
1.01703953313008e6
1.039771822611829e6
1.0519443520363201e6
1.062407951132328e6
1.072213441168078e6
1.0814757622146772e6
1.0902218129276559e6
1.0984656582952256e6
1.1062134156090938e6
1.113463947246502e6
1.120207417481438e6
1.1264289522815193e6
1.1320969001820278e6
1.1371982368420656e6
1.1416314500335853e6
1.1455498375399015e6
1.1482702440292854e6
1.1519263058350186e6
1.1489063528437496e6
1.1669641032676424e6
100000.0000000148
99999.99999996088
100000.00000010464
99999.99999972073
100000.0000007451
99999.99999801356
100000.00000529143
99999.99998591482
100000.00003745986
99999.99990045937
100000.00026426066
99999.9992991171
100000.0018570119
99999.995085043
100000.01299387189
99999.96568757076
100000.09049785386
99999.76161904327
100000.62687915486
99998.35901562024
100004.15710794143
99992.50670420997
99939.1331343652
102014.75390031582
161943.4061394717
377593.81037698715
690192.8827688848
919888.8081744459
1.0089503300538141e6
1.0343768844356628e6
1.0467043285206829e6
1.0568956314132272e6
1.0663584387389547e6
1.0752493847260834e6
1.0835993501437232e6
1.0914233732333996e6
1.0987287549012816e6
1.105515962477908e6
1.1117774715206723e6
1.117501187529993e6
1.12266029340888e6
1.1272456576324557e6
1.1311693602350962e6
1.134583537425205e6
1.1368556362751166e6
1.1400970280080677e6
1.1366472559393686e6
1.1558734980732347e6
100000.00000000892
99999.99999997679
100000.00000006142
99999.99999983994
100000.00000041569
99999.99999892377
100000.00000277554
99999.99999287672
100000.00001818147
99999.999953893
100000.00011601996
99999.99971079716
100000.00071251414
99999.99827042676
100000.0041176519
99999.99045286437
100000.02130887518
99999.9551874636
100000.08464038635
99999.87814536438
99999.9533033953
100002.75385596427
99951.08921745172
100935.48107251288
148111.07194386987
343998.694899438
652738.6512676517
897340.2910715899
999151.6723461045
1.0282438835892129e6
1.0408923804266052e6
1.0507943192294897e6
1.0598646434737614e6
1.068323783239013e6
1.076207895105727e6
1.0835314973296965e6
1.0903010282828477e6
1.096516159305911e6
1.102168895421409e6
1.1072467571317535e6
1.1117240646265198e6
1.1155915902718408e6
1.1187701910811646e6
1.1214082167123854e6
1.122921319333973e6
1.1254204882965568e6
1.1211833359359698e6
1.141754362766265e6
100000.00000000426
99999.99999998954
100000.00000002576
99999.99999993797
100000.00000014677
99999.99999966404
100000.00000073726
99999.99999849172
100000.00000269988
99999.99999661534
99999.99999801612
100000.00003706556
99999.99980943055
100000.0007730496
99999.99717347784
100000.00974811516
99999.96761384625
100000.10485239096
99999.6668156233
100001.04517891326
99996.72926744056
100010.68607817341
99956.64519300089
100261.14443436735
135460.76614023172
309208.60601475555
610708.731996484
870243.5481807269
987232.8453848765
1.0212750562751835e6
1.0345054595136725e6
1.044117586482695e6
1.05274632496004e6
1.060710380502985e6
1.068053943328318e6
1.0747890936292934e6
1.0809184835710325e6
1.0864374265029747e6
1.091333316442432e6
1.09558882372278e6
1.0991751589056025e6
1.1020803393194552e6
1.1042339112216642e6
1.1057905738762368e6
1.1062289119916763e6
1.1077007002939135e6
1.1023909275177375e6
1.1247297369687355e6
100000.00000000068
99999.99999999917
99999.99999999942
100000.00000000982
99999.99999995083
100000.00000019852
99999.99999928122
100000.00000246034
99999.99999188211
100000.00002611369
99999.99991755105
100000.00025664647
99999.9992099238
100000.00241078227
99999.99269649328
100000.02199637116
99999.93407336858
100000.19679882588
99999.41447740067
100001.73766430344
99994.85102549937
100015.20491505919
99959.39124502151
99922.57326615692
124498.87925595342
274164.3617710137
564352.0757326564
837953.0181158085
972659.9975482264
1.0133243688662875e6
1.0275348972991848e6
1.036884433398387e6
1.045026226290134e6
1.052430823247352e6
1.0591558990229152e6
1.0652087627146486e6
1.070584031362349e6
1.0752668143966985e6
1.079231818867257e6
1.082445443428466e6
1.0848590238313617e6
1.0864321091920312e6
1.087066176259787e6
1.086863121109853e6
1.0852825693856857e6
1.0844759364922296e6
1.0764933670094947e6
1.1000272026881056e6
99999.99999999837
100000.00000000544
99999.99999998264
100000.00000005514
99999.99999983018
100000.00000051907
99999.99999842908
100000.00000471972
99999.99998590493
100000.0000418797
99999.99987609513
100000.00036525312
99999.99892660548
100000.00314618982
99999.99079881357
100000.02685885892
99999.92172000573
100000.22785331294
99999.33746291399
100001.9248092119
99994.41881169977
100015.90862904527
99963.4111167529
99816.33462606631
115593.24145620369
239942.0489901634
514187.0993866543
799855.8914651991
954755.6575371098
1.0041746318019874e6
1.0199597443470862e6
1.0291184840981818e6
1.0367365146587238e6
1.0435189781001412e6
1.0495474469345747e6
1.0548223342488855e6
1.0593252522730257e6
1.0630242600559278e6
1.0658724461843611e6
1.0678088986496506e6
1.068754338410164e6
1.0686318517691952e6
1.0673127998337771e6
1.064889227184262e6
1.0608841681574758e6
1.0575745022764758e6
1.0469704944564658e6
1.0733349109106383e6
99999.99999999728
100000.00000000888
99999.99999997427
100000.00000007596
99999.99999977813
100000.00000064704
99999.99999811918
100000.00000545215
99999.99998423416
100000.00004548569
99999.99986902611
100000.00037647219
99999.99891953888
100000.00309664017
99999.99113558572
100000.0253485901
99999.92757888365
100000.20674941714
99999.41014758023
100001.68166007465
99995.21760563475
100013.29663011448
99971.24477651494
99833.91780582792
108910.58378404978
207702.11716844936
461057.6642475434
755456.0247076766
932687.3442027508
993506.8813304933
1.0117361097287618e6
1.0208458368001011e6
1.027919016591494e6
1.0340220696305245e6
1.0392793652668068e6
1.0436830988715653e6
1.0471957526578284e6
1.0497585256465168e6
1.0512870593607896e6
1.0516674162739334e6
1.0507397309627305e6
1.0483068414505562e6
1.0440434205051166e6
1.0376970875139025e6
1.0282411016299609e6
1.0170695033049908e6
994757.9021479903
1.0127233141449828e6
99999.99999999671
100000.00000000949
99999.99999997315
100000.00000007724
99999.99999977977
100000.00000062592
99999.9999982231
100000.00000503172
99999.99998577502
100000.00004013962
99999.99988693227
100000.00031794996
99999.99910741739
100000.00250156391
99999.99300081992
100000.01954998243
99999.94548778114
100000.1517279226
99999.5784775759
100001.16843238693
99996.77650637951
100008.6424662495
99982.56469539527
99889.63682872131
104377.44692548666
178604.80957972066
406168.2407579385
704486.6044648575
905475.0978358467
980861.3423514302
1.0027805883921642e6
1.0120908703862868e6
1.0186246732991819e6
1.0240015230070214e6
1.0284219325920175e6
1.0318714390803637e6
1.0342883162740805e6
1.0355787311337737e6
1.0356087750166701e6
1.0341964088480894e6
1.0310903813224583e6
1.025969495267167e6
1.018365904622921e6
1.0078971293552238e6
993568.7314357382
977097.5369296939
949374.8597217425
972421.813613044
99999.99999999684
100000.00000000845
99999.9999999762
100000.00000006593
99999.99999981574
100000.0000005118
99999.9999985797
100000.00000392915
99999.99998915577
100000.00002984145
99999.99991812605
100000.00022389166
99999.99938995941
100000.00165548766
99999.99552788398
100000.01201799493
99999.96789930378
100000.08512957068
99999.77618788749
100000.58197301834
99998.51251740806
100003.59680450251
99994.63187485626
99935.91969569276
101687.5733279548
153687.68869641278
351082.4639398256
647047.1964232392
872032.2897273437
965591.8161262264
992945.4429726579
1.0028688215116701e6
1.0089113864189432e6
1.0135319874351979e6
1.0170639434755814e6
1.0194928028971291e6
1.0207289109814095e6
1.0206342222169955e6
1.0190097239598832e6
1.0155746802362287e6
1.0099132068907876e6
1.0014123356848645e6
989041.3805959192
971221.4856663813
944265.1045718987
903279.6737318648
824785.2349213047
696543.8498022918
99999.99999999764
100000.00000000643
99999.999999982
100000.0000000487
99999.999999867
100000.00000035945
99999.99999903025
100000.00000260126
99999.99999305885
100000.00001840184
99999.99995157543
100000.00012628976
99999.9996742238
100000.00082892309
99999.9979278503
100000.00505839373
99999.98805906592
100000.02678850571
99999.94488568022
100000.09459190736
99999.91725019748
99999.62280009326
100004.04952739496
99960.76250717456
100368.9490053002
133707.6454701255
297667.6441467841
583751.279124477
831257.4807549382
946820.2155999007
981983.2223983414
993173.8485916565
998840.064266593
1.002699288987317e6
1.0053112986678942e6
1.0066779507231879e6
1.0066827872334145e6
1.0051407691733073e6
1.0017883877910068e6
996242.7468008044
987931.1500171896
975989.6873001204
958984.6906168617
934694.5693154875
898581.0905964389
844720.1378941801
753684.3218045547
617393.2903870092
99999.99999999817
100000.00000000432
99999.99999998815
100000.0000000309
99999.9999999179
100000.00000021253
99999.99999945099
100000.0000013978
99999.99999649101
100000.00000863492
99999.99997929874
100000.0000477963
99999.99989588487
100000.0002046669
99999.99968084929
100000.00015100608
100000.00175033323
99999.98873462091
100000.05020316518
99999.80460327255
100000.70945039531
99997.51630455597
100008.63992881804
99972.05497564885
99900.26803320048
118970.9414243211
247969.4624910273
515856.0855844334
782192.6317894163
923404.4871663711
969498.5380651773
982960.4617619839
988467.8494283286
991596.0877347005
993281.7662851705
993575.0860716247
992338.8866802522
989351.5675916593
984293.0825329605
976704.088232095
965907.1796826619
950902.9311391197
930110.5169596189
901209.4654423974
859966.4629323628
801456.0221545451
712637.1176060697
592030.8342582528
99999.99999999907
100000.00000000262
99999.9999999934
100000.00000001623
99999.9999999592
100000.00000009805
99999.9999997695
100000.00000051556
99999.99999892322
100000.00000196384
99999.99999749706
99999.99999846787
100000.00002860047
99999.99985078018
100000.0006142219
99999.99772287192
100000.0079553134
99999.973255615
100000.08751380016
99999.71932103953
100000.88649945978
99997.23432970278
100008.4216107234
99980.41490291894
99837.28050952384
109211.89453945891
204009.01166660388
445333.1017429554
724251.2860187835
893940.74726236
954885.449151906
972115.2019924714
977837.4784633109
980315.3622314176
981097.4712470745
980337.066602864
977893.6348923764
973520.4301637379
966861.6620901012
957415.5307654067
944463.0253353029
926981.4784428243
903440.7509460842
871737.2708636645
828403.6834343383
769891.5878347897
688223.1092764015
584982.6807483472
99999.99999999959
100000.00000000115
99999.99999999712
100000.00000000614
99999.99999998652
100000.00000002461
99999.99999996545
99999.99999999903
100000.00000027024
99999.99999850153
100000.0000062338
99999.99997695675
100000.00007974748
99999.99973546789
100000.00085150478
99999.99732084878
100000.00827701326
99999.97481839162
100000.07558603097
99999.77589855704
100000.65658837506
99998.10262849739
100005.26514056257
99990.09016722566
99894.20380692027
103604.52477717101
167505.90613418783
374834.41437459004
657501.5776094109
856830.4954310119
937252.9843878804
960414.582821306
966961.2947044865
968942.2587669361
968877.0805946881
967111.5481088518
963530.8973497709
957877.9076389022
949783.2210567938
938736.8354406686
924032.0035984092
904703.9797704543
879388.6413459545
846330.5071303977
802900.45670199
746734.5016412893
673264.2510212493
584866.5662569983
99999.99999999977
100000.00000000022
99999.99999999927
100000.00000000061
100000.00000000135
99999.99999998762
100000.00000005563
99999.99999978516
100000.00000075348
99999.99999749078
100000.00000804524
99999.99997490847
100000.00007651864
99999.99977105296
100000.00067333295
99999.99805186439
100000.00554457301
99999.98449250172
100000.04253190255
99999.88603652109
100000.29636433562
99999.2633170422
100001.62478041044
99999.14014186716
99946.6926007569
100955.5377273726
139545.70870913664
307517.971923228
582962.8732024962
810453.9744949357
915352.431092149
947465.6970183806
955797.7131176123
957543.8912564518
956727.5732629612
954033.0417703924
949411.5148092814
942615.6127225371
933282.0697995791
920920.463109277