# vtk DataFile Version 2.0
JuliaCFD
ASCII
DATASET UNSTRUCTURED_GRID

POINTS 32898 float
0.0 0.0 -0.05
0.0125 0.0 -0.05
0.025 0.0 -0.05
0.0375 0.0 -0.05
0.05 0.0 -0.05
0.0625 0.0 -0.05
0.075 0.0 -0.05
0.0875 0.0 -0.05
0.1 0.0 -0.05
0.1125 0.0 -0.05
0.125 0.0 -0.05
0.1375 0.0 -0.05
0.15 0.0 -0.05
0.1625 0.0 -0.05
0.175 0.0 -0.05
0.1875 0.0 -0.05
0.2 0.0 -0.05
0.2125 0.0 -0.05
0.225 0.0 -0.05
0.2375 0.0 -0.05
0.25 0.0 -0.05
0.2625 0.0 -0.05
0.275 0.0 -0.05
0.2875 0.0 -0.05
0.3 0.0 -0.05
0.3125 0.0 -0.05
0.325 0.0 -0.05
0.3375 0.0 -0.05
0.35 0.0 -0.05
0.3625 0.0 -0.05
0.375 0.0 -0.05
0.3875 0.0 -0.05
0.4 0.0 -0.05
0.4125 0.0 -0.05
0.425 0.0 -0.05
0.4375 0.0 -0.05
0.45 0.0 -0.05
0.4625 0.0 -0.05
0.475 0.0 -0.05
0.4875 0.0 -0.05
0.5 0.0 -0.05
0.5125 0.0 -0.05
0.525 0.0 -0.05
0.5375 0.0 -0.05
0.55 0.0 -0.05
0.5625 0.0 -0.05
0.575 0.0 -0.05
0.5875 0.0 -0.05
0.6 0.0 -0.05
0.0 0.0125 -0.05
0.0125 0.0125 -0.05
0.025 0.0125 -0.05
0.0375 0.0125 -0.05
0.05 0.0125 -0.05
0.0625 0.0125 -0.05
0.075 0.0125 -0.05
0.0875 0.0125 -0.05
0.1 0.0125 -0.05
0.1125 0.0125 -0.05
0.125 0.0125 -0.05
0.1375 0.0125 -0.05
0.15 0.0125 -0.05
0.1625 0.0125 -0.05
0.175 0.0125 -0.05
0.1875 0.0125 -0.05
0.2 0.0125 -0.05
0.2125 0.0125 -0.05
0.225 0.0125 -0.05
0.2375 0.0125 -0.05
0.25 0.0125 -0.05
0.2625 0.0125 -0.05
0.275 0.0125 -0.05
0.2875 0.0125 -0.05
0.3 0.0125 -0.05
0.3125 0.0125 -0.05
0.325 0.0125 -0.05
0.3375 0.0125 -0.05
0.35 0.0125 -0.05
0.3625 0.0125 -0.05
0.375 0.0125 -0.05
0.3875 0.0125 -0.05
0.4 0.0125 -0.05
0.4125 0.0125 -0.05
0.425 0.0125 -0.05
0.4375 0.0125 -0.05
0.45 0.0125 -0.05
0.4625 0.0125 -0.05
0.475 0.0125 -0.05
0.4875 0.0125 -0.05
0.5 0.0125 -0.05
0.5125 0.0125 -0.05
0.525 0.0125 -0.05
0.5375 0.0125 -0.05
0.55 0.0125 -0.05
0.5625 0.0125 -0.05
0.575 0.0125 -0.05
0.5875 0.0125 -0.05
0.6 0.0125 -0.05
0.0 0.025 -0.05
0.0125 0.025 -0.05
0.025 0.025 -0.05
0.0375 0.025 -0.05
0.05 0.025 -0.05
0.0625 0.025 -0.05
0.075 0.025 -0.05
0.0875 0.025 -0.05
0.1 0.025 -0.05
0.1125 0.025 -0.05
0.125 0.025 -0.05
0.1375 0.025 -0.05
0.15 0.025 -0.05
0.1625 0.025 -0.05
0.175 0.025 -0.05
0.1875 0.025 -0.05
0.2 0.025 -0.05
0.2125 0.025 -0.05
0.225 0.025 -0.05
0.2375 0.025 -0.05
0.25 0.025 -0.05
0.2625 0.025 -0.05
0.275 0.025 -0.05
0.2875 0.025 -0.05
0.3 0.025 -0.05
0.3125 0.025 -0.05
0.325 0.025 -0.05
0.3375 0.025 -0.05
0.35 0.025 -0.05
0.3625 0.025 -0.05
0.375 0.025 -0.05
0.3875 0.025 -0.05
0.4 0.025 -0.05
0.4125 0.025 -0.05
0.425 0.025 -0.05
0.4375 0.025 -0.05
0.45 0.025 -0.05
0.4625 0.025 -0.05
0.475 0.025 -0.05
0.4875 0.025 -0.05
0.5 0.025 -0.05
0.5125 0.025 -0.05
0.525 0.025 -0.05
0.5375 0.025 -0.05
0.55 0.025 -0.05
0.5625 0.025 -0.05
0.575 0.025 -0.05
0.5875 0.025 -0.05
0.6 0.025 -0.05
0.0 0.0375 -0.05
0.0125 0.0375 -0.05
0.025 0.0375 -0.05
0.0375 0.0375 -0.05
0.05 0.0375 -0.05
0.0625 0.0375 -0.05
0.075 0.0375 -0.05
0.0875 0.0375 -0.05
0.1 0.0375 -0.05
0.1125 0.0375 -0.05
0.125 0.0375 -0.05
0.1375 0.0375 -0.05
0.15 0.0375 -0.05
0.1625 0.0375 -0.05
0.175 0.0375 -0.05
0.1875 0.0375 -0.05
0.2 0.0375 -0.05
0.2125 0.0375 -0.05
0.225 0.0375 -0.05
0.2375 0.0375 -0.05
0.25 0.0375 -0.05
0.2625 0.0375 -0.05
0.275 0.0375 -0.05
0.2875 0.0375 -0.05
0.3 0.0375 -0.05
0.3125 0.0375 -0.05
0.325 0.0375 -0.05
0.3375 0.0375 -0.05
0.35 0.0375 -0.05
0.3625 0.0375 -0.05
0.375 0.0375 -0.05
0.3875 0.0375 -0.05
0.4 0.0375 -0.05
0.4125 0.0375 -0.05
0.425 0.0375 -0.05
0.4375 0.0375 -0.05
0.45 0.0375 -0.05
0.4625 0.0375 -0.05
0.475 0.0375 -0.05
0.4875 0.0375 -0.05
0.5 0.0375 -0.05
0.5125 0.0375 -0.05
0.525 0.0375 -0.05
0.5375 0.0375 -0.05
0.55 0.0375 -0.05
0.5625 0.0375 -0.05
0.575 0.0375 -0.05
0.5875 0.0375 -0.05
0.6 0.0375 -0.05
0.0 0.05 -0.05
0.0125 0.05 -0.05
0.025 0.05 -0.05
0.0375 0.05 -0.05
0.05 0.05 -0.05
0.0625 0.05 -0.05
0.075 0.05 -0.05
0.0875 0.05 -0.05
0.1 0.05 -0.05
0.1125 0.05 -0.05
0.125 0.05 -0.05
0.1375 0.05 -0.05
0.15 0.05 -0.05
0.1625 0.05 -0.05
0.175 0.05 -0.05
0.1875 0.05 -0.05
0.2 0.05 -0.05
0.2125 0.05 -0.05
0.225 0.05 -0.05
0.2375 0.05 -0.05
0.25 0.05 -0.05
0.2625 0.05 -0.05
0.275 0.05 -0.05
0.2875 0.05 -0.05
0.3 0.05 -0.05
0.3125 0.05 -0.05
0.325 0.05 -0.05
0.3375 0.05 -0.05
0.35 0.05 -0.05
0.3625 0.05 -0.05
0.375 0.05 -0.05
0.3875 0.05 -0.05
0.4 0.05 -0.05
0.4125 0.05 -0.05
0.425 0.05 -0.05
0.4375 0.05 -0.05
0.45 0.05 -0.05
0.4625 0.05 -0.05
0.475 0.05 -0.05
0.4875 0.05 -0.05
0.5 0.05 -0.05
0.5125 0.05 -0.05
0.525 0.05 -0.05
0.5375 0.05 -0.05
0.55 0.05 -0.05
0.5625 0.05 -0.05
0.575 0.05 -0.05
0.5875 0.05 -0.05
0.6 0.05 -0.05
0.0 0.0625 -0.05
0.0125 0.0625 -0.05
0.025 0.0625 -0.05
0.0375 0.0625 -0.05
0.05 0.0625 -0.05
0.0625 0.0625 -0.05
0.075 0.0625 -0.05
0.0875 0.0625 -0.05
0.1 0.0625 -0.05
0.1125 0.0625 -0.05
0.125 0.0625 -0.05
0.1375 0.0625 -0.05
0.15 0.0625 -0.05
0.1625 0.0625 -0.05
0.175 0.0625 -0.05
0.1875 0.0625 -0.05
0.2 0.0625 -0.05
0.2125 0.0625 -0.05
0.225 0.0625 -0.05
0.2375 0.0625 -0.05
0.25 0.0625 -0.05
0.2625 0.0625 -0.05
0.275 0.0625 -0.05
0.2875 0.0625 -0.05
0.3 0.0625 -0.05
0.3125 0.0625 -0.05
0.325 0.0625 -0.05
0.3375 0.0625 -0.05
0.35 0.0625 -0.05
0.3625 0.0625 -0.05
0.375 0.0625 -0.05
0.3875 0.0625 -0.05
0.4 0.0625 -0.05
0.4125 0.0625 -0.05
0.425 0.0625 -0.05
0.4375 0.0625 -0.05
0.45 0.0625 -0.05
0.4625 0.0625 -0.05
0.475 0.0625 -0.05
0.4875 0.0625 -0.05
0.5 0.0625 -0.05
0.5125 0.0625 -0.05
0.525 0.0625 -0.05
0.5375 0.0625 -0.05
0.55 0.0625 -0.05
0.5625 0.0625 -0.05
0.575 0.0625 -0.05
0.5875 0.0625 -0.05
0.6 0.0625 -0.05
0.0 0.075 -0.05
0.0125 0.075 -0.05
0.025 0.075 -0.05
0.0375 0.075 -0.05
0.05 0.075 -0.05
0.0625 0.075 -0.05
0.075 0.075 -0.05
0.0875 0.075 -0.05
0.1 0.075 -0.05
0.1125 0.075 -0.05
0.125 0.075 -0.05
0.1375 0.075 -0.05
0.15 0.075 -0.05
0.1625 0.075 -0.05
0.175 0.075 -0.05
0.1875 0.075 -0.05
0.2 0.075 -0.05
0.2125 0.075 -0.05
0.225 0.075 -0.05
0.2375 0.075 -0.05
0.25 0.075 -0.05
0.2625 0.075 -0.05
0.275 0.075 -0.05
0.2875 0.075 -0.05
0.3 0.075 -0.05
0.3125 0.075 -0.05
0.325 0.075 -0.05
0.3375 0.075 -0.05
0.35 0.075 -0.05
0.3625 0.075 -0.05
0.375 0.075 -0.05
0.3875 0.075 -0.05
0.4 0.075 -0.05
0.4125 0.075 -0.05
0.425 0.075 -0.05
0.4375 0.075 -0.05
0.45 0.075 -0.05
0.4625 0.075 -0.05
0.475 0.075 -0.05
0.4875 0.075 -0.05
0.5 0.075 -0.05
0.5125 0.075 -0.05
0.525 0.075 -0.05
0.5375 0.075 -0.05
0.55 0.075 -0.05
0.5625 0.075 -0.05
0.575 0.075 -0.05
0.5875 0.075 -0.05
0.6 0.075 -0.05
0.0 0.0875 -0.05
0.0125 0.0875 -0.05
0.025 0.0875 -0.05
0.0375 0.0875 -0.05
0.05 0.0875 -0.05
0.0625 0.0875 -0.05
0.075 0.0875 -0.05
0.0875 0.0875 -0.05
0.1 0.0875 -0.05
0.1125 0.0875 -0.05
0.125 0.0875 -0.05
0.1375 0.0875 -0.05
0.15 0.0875 -0.05
0.1625 0.0875 -0.05
0.175 0.0875 -0.05
0.1875 0.0875 -0.05
0.2 0.0875 -0.05
0.2125 0.0875 -0.05
0.225 0.0875 -0.05
0.2375 0.0875 -0.05
0.25 0.0875 -0.05
0.2625 0.0875 -0.05
0.275 0.0875 -0.05
0.2875 0.0875 -0.05
0.3 0.0875 -0.05
0.3125 0.0875 -0.05
0.325 0.0875 -0.05
0.3375 0.0875 -0.05
0.35 0.0875 -0.05
0.3625 0.0875 -0.05
0.375 0.0875 -0.05
0.3875 0.0875 -0.05
0.4 0.0875 -0.05
0.4125 0.0875 -0.05
0.425 0.0875 -0.05
0.4375 0.0875 -0.05
0.45 0.0875 -0.05
0.4625 0.0875 -0.05
0.475 0.0875 -0.05
0.4875 0.0875 -0.05
0.5 0.0875 -0.05
0.5125 0.0875 -0.05
0.525 0.0875 -0.05
0.5375 0.0875 -0.05
0.55 0.0875 -0.05
0.5625 0.0875 -0.05
0.575 0.0875 -0.05
0.5875 0.0875 -0.05
0.6 0.0875 -0.05
0.0 0.1 -0.05
0.0125 0.1 -0.05
0.025 0.1 -0.05
0.0375 0.1 -0.05
0.05 0.1 -0.05
0.0625 0.1 -0.05
0.075 0.1 -0.05
0.0875 0.1 -0.05
0.1 0.1 -0.05
0.1125 0.1 -0.05
0.125 0.1 -0.05
0.1375 0.1 -0.05
0.15 0.1 -0.05
0.1625 0.1 -0.05
0.175 0.1 -0.05
0.1875 0.1 -0.05
0.2 0.1 -0.05
0.2125 0.1 -0.05
0.225 0.1 -0.05
0.2375 0.1 -0.05
0.25 0.1 -0.05
0.2625 0.1 -0.05
0.275 0.1 -0.05
0.2875 0.1 -0.05
0.3 0.1 -0.05
0.3125 0.1 -0.05
0.325 0.1 -0.05
0.3375 0.1 -0.05
0.35 0.1 -0.05
0.3625 0.1 -0.05
0.375 0.1 -0.05
0.3875 0.1 -0.05
0.4 0.1 -0.05
0.4125 0.1 -0.05
0.425 0.1 -0.05
0.4375 0.1 -0.05
0.45 0.1 -0.05
0.4625 0.1 -0.05
0.475 0.1 -0.05
0.4875 0.1 -0.05
0.5 0.1 -0.05
0.5125 0.1 -0.05
0.525 0.1 -0.05
0.5375 0.1 -0.05
0.55 0.1 -0.05
0.5625 0.1 -0.05
0.575 0.1 -0.05
0.5875 0.1 -0.05
0.6 0.1 -0.05
0.0 0.1125 -0.05
0.0125 0.1125 -0.05
0.025 0.1125 -0.05
0.0375 0.1125 -0.05
0.05 0.1125 -0.05
0.0625 0.1125 -0.05
0.075 0.1125 -0.05
0.0875 0.1125 -0.05
0.1 0.1125 -0.05
0.1125 0.1125 -0.05
0.125 0.1125 -0.05
0.1375 0.1125 -0.05
0.15 0.1125 -0.05
0.1625 0.1125 -0.05
0.175 0.1125 -0.05
0.1875 0.1125 -0.05
0.2 0.1125 -0.05
0.2125 0.1125 -0.05
0.225 0.1125 -0.05
0.2375 0.1125 -0.05
0.25 0.1125 -0.05
0.2625 0.1125 -0.05
0.275 0.1125 -0.05
0.2875 0.1125 -0.05
0.3 0.1125 -0.05
0.3125 0.1125 -0.05
0.325 0.1125 -0.05
0.3375 0.1125 -0.05
0.35 0.1125 -0.05
0.3625 0.1125 -0.05
0.375 0.1125 -0.05
0.3875 0.1125 -0.05
0.4 0.1125 -0.05
0.4125 0.1125 -0.05
0.425 0.1125 -0.05
0.4375 0.1125 -0.05
0.45 0.1125 -0.05
0.4625 0.1125 -0.05
0.475 0.1125 -0.05
0.4875 0.1125 -0.05
0.5 0.1125 -0.05
0.5125 0.1125 -0.05
0.525 0.1125 -0.05
0.5375 0.1125 -0.05
0.55 0.1125 -0.05
0.5625 0.1125 -0.05
0.575 0.1125 -0.05
0.5875 0.1125 -0.05
0.6 0.1125 -0.05
0.0 0.125 -0.05
0.0125 0.125 -0.05
0.025 0.125 -0.05
0.0375 0.125 -0.05
0.05 0.125 -0.05
0.0625 0.125 -0.05
0.075 0.125 -0.05
0.0875 0.125 -0.05
0.1 0.125 -0.05
0.1125 0.125 -0.05
0.125 0.125 -0.05
0.1375 0.125 -0.05
0.15 0.125 -0.05
0.1625 0.125 -0.05
0.175 0.125 -0.05
0.1875 0.125 -0.05
0.2 0.125 -0.05
0.2125 0.125 -0.05
0.225 0.125 -0.05
0.2375 0.125 -0.05
0.25 0.125 -0.05
0.2625 0.125 -0.05
0.275 0.125 -0.05
0.2875 0.125 -0.05
0.3 0.125 -0.05
0.3125 0.125 -0.05
0.325 0.125 -0.05
0.3375 0.125 -0.05
0.35 0.125 -0.05
0.3625 0.125 -0.05
0.375 0.125 -0.05
0.3875 0.125 -0.05
0.4 0.125 -0.05
0.4125 0.125 -0.05
0.425 0.125 -0.05
0.4375 0.125 -0.05
0.45 0.125 -0.05
0.4625 0.125 -0.05
0.475 0.125 -0.05
0.4875 0.125 -0.05
0.5 0.125 -0.05
0.5125 0.125 -0.05
0.525 0.125 -0.05
0.5375 0.125 -0.05
0.55 0.125 -0.05
0.5625 0.125 -0.05
0.575 0.125 -0.05
0.5875 0.125 -0.05
0.6 0.125 -0.05
0.0 0.1375 -0.05
0.0125 0.1375 -0.05
0.025 0.1375 -0.05
0.0375 0.1375 -0.05
0.05 0.1375 -0.05
0.0625 0.1375 -0.05
0.075 0.1375 -0.05
0.0875 0.1375 -0.05
[...]
CELL_DATA 16128
SCALARS P float 1
LOOKUP_TABLE default
100000.0
100000.0
100000.00000000006
100000.0
100000.0
100000.0
100000.0
100000.0
100000.0
100000.0
100000.0
100000.0
100000.0
100000.0
100000.0
100000.0
100000.0
100000.0
100000.0
100000.0
100000.0000000001
100000.00000000089
100000.00000000623
100000.00000003944
100000.00000024408
100000.00000147992
100000.00000886415
100000.00005261619
100000.00031011555
100000.00181736614
100000.01059889967
100000.06154046729
100000.35574494701
100002.04658277828
100011.70912789807
100066.54829131512
100374.88535228741
102080.14782887496
111147.72309359904
153489.56514275234
294840.725643421
597304.7512655803
1.02888614783231e6
1.4403499886341388e6
1.669255590717868e6
1.7018847494385284e6
1.661353158595231e6
1.5920594267971828e6
100000.0
100000.0
100000.0
100000.0
100000.0
100000.0
100000.0
100000.0
100000.0
100000.0
100000.0
100000.0
100000.0
100000.0
100000.0
100000.0
100000.0
100000.0
100000.0
100000.0
100000.00000000007
100000.00000000093
100000.00000000602
100000.00000003917
100000.0000002439
100000.0000014786
100000.00000885307
100000.0000525393
100000.00030959047
100000.00181378517
100000.01057453503
100000.0613752605
100000.3546299297
100002.03910246915
100011.65932913884
100066.22007976484
100372.75377389297
102066.67168214745
111067.77895526587
153105.0398636448
293658.0835106742
595054.7397141295
1.0260389996568543e6
1.4379531966851188e6
1.6680486004562546e6
1.7017403303071065e6
1.6615849415981583e6
1.592719539756426e6
100000.0
100000.0
100000.00000000006
100000.0
100000.0
100000.0
100000.0
100000.0
100000.0
100000.0
100000.0
100000.0
100000.0
100000.0
100000.0
100000.0
100000.0
100000.0
100000.0
100000.0
100000.00000000012
100000.0000000008
100000.00000000597
100000.00000003887
100000.00000024342
100000.00000147495
100000.00000882754
100000.00005236424
100000.00030840067
100000.00180572266
100000.01052003073
100000.0610079772
100000.35216559315
100002.02265872734
100011.55035769235
100065.5041737663
100368.10783559138
102037.1883324334
110890.67204612943
152226.18386065212
290761.3281650205
588750.2316605002
1.0159784367869792e6
1.425482198830172e6
1.655382348456676e6
1.6900900358814185e6
1.650368672493577e6
1.5826670138361866e6
100000.0
100000.0
100000.0
100000.0
100000.0
100000.0
100000.0
100000.0
100000.0
100000.0
100000.0
100000.0
100000.0
100000.0
100000.0
100000.0
100000.0
100000.0
100000.0
100000.0
100000.00000000012
100000.00000000067
100000.00000000614
100000.00000003875
100000.00000024255
100000.00000146842
100000.00000878159
100000.00005205377
100000.0003063126
100000.0017917126
100000.01042624813
100000.06038218479
100000.34800722126
100001.99517345293
100011.3698898251
100064.32905857857
100360.54585537632
101989.5731592684
110606.57486775903
150821.68032867872
286143.3063444326
578775.4965332157
1.0003091515749696e6
1.4065117017801953e6
1.6366180039570401e6
1.6731376684882399e6
1.634236285790103e6
1.5683292681028529e6
100000.0
100000.0
100000.00000000006
100000.0
100000.0
100000.0
100000.0
100000.0
100000.0
100000.0
100000.0
100000.0
100000.0
100000.0
100000.0
100000.0
100000.0
100000.0
100000.0
100000.0
100000.00000000012
100000.00000000077
100000.00000000613
100000.00000003882
100000.00000024095
100000.00000145704
100000.0000087061
100000.00005155065
100000.00030296839
100000.00176953245
100000.01027951801
100000.05941465721
100000.3416543412
100001.95368269012
100011.10070665044
100062.59718411864
100349.5341623449
101921.05980746841
110202.36770778267
148837.5627572861
279644.1986458839
564844.4313712593
978717.0291418757
1.3808493479164343e6
1.6118079909836068e6
1.6512379240785122e6
1.613742859418726e6
1.5503397828826036e6
100000.0
100000.0
100000.0
100000.0
100000.0
100000.0
100000.0
100000.0
100000.0
100000.0
100000.0
100000.0
100000.0
100000.0
100000.0
100000.0
100000.0
100000.0
100000.0
100000.0
100000.00000000012
100000.00000000097
100000.00000000617
100000.0000000387
100000.00000023848
100000.00000143918
100000.00000858892
100000.00005077984
100000.00029790656
100000.00173637838
100000.01006297565
100000.05800525854
100000.33252154419
100001.89482953084
100010.72402605959
100060.2067969637
100334.54534234479
101829.08519507687
109666.65392653563
146225.36445216424
271093.74226129137
546591.6755858851
950724.9904000112
1.3481436252297626e6
1.5809418885284378e6
1.6247340543922696e6
1.5894705873958676e6
1.5293924308747405e6
100000.0
100000.0
100000.00000000006
100000.0
100000.0
100000.0
100000.0
100000.0
100000.0
100000.0
100000.0
100000.0
100000.0
100000.0
100000.0
100000.0
100000.0
100000.0
100000.0
100000.0
100000.00000000012
100000.00000000089
100000.0000000062
100000.00000003827
100000.00000023421
100000.00000141269
100000.00000841577
100000.00004965336
100000.0002905996
100000.00168913015
100000.00975844251
100000.05604995544
100000.32002657332
100001.81544771162
100010.2232859067
100057.07592850256
100315.20687771437
101712.18518921889
108994.90211763581
142967.0228884702
260390.30063352856
523735.27909852174
915917.1583142913
1.308061507843563e6
1.5440038065705507e6
1.5939723640691757e6
1.56203289082913e6
1.5062686985360153e6
100000.0
100000.0
100000.0
100000.0
100000.0
100000.0
100000.0
100000.0
100000.0
100000.0
100000.0
100000.0
100000.0
100000.0
100000.0
100000.0
100000.0
100000.0
100000.0
100000.0
100000.00000000016
100000.00000000089
100000.00000000611
100000.00000003751
100000.00000022863
100000.00000137476
100000.000008171
100000.00004807918
100000.0002805155
100000.00162476442
100000.00934913893
100000.05345834578
100000.3037016316
100001.71325482873
100009.588369281
100053.16753216877
100291.44649160425
101570.8032106188
108193.68828575872
139094.3075658973
247556.4893397305
496161.7280066338
874008.4866592076
1.260302049231132e6
1.5009365023317179e6
1.5591757661654376e6
1.531982661704067e6
1.4817790991101423e6
100000.0
100000.0
100000.00000000006
100000.0
100000.0
100000.0
100000.0
100000.0
100000.0
100000.0
100000.0
100000.0
100000.0
100000.0
100000.0
100000.0
100000.0
100000.0
100000.0
100000.0
100000.00000000007
100000.00000000093
100000.00000000584
100000.00000003622
100000.00000022053
100000.00000132309
100000.00000784016
100000.00004597552
100000.00026720551
100000.00154090545
100000.00882307948
100000.05017425142
100000.28331566609
100001.58756054763
100008.81958080184
100048.51094035717
100263.6019775134
101407.81303647316
107283.01136582697
134699.97955955844
232777.3904073165
463983.52290560224
824870.3297661829
1.2045273865802377e6
1.4514855987567746e6
1.52042532672719e6
1.4996995432509112e6
1.4566928731892165e6
100000.0
100000.0
100000.0
100000.0
100000.0
100000.0
100000.0
100000.0
100000.0
100000.0
100000.0
100000.0
100000.0
100000.0
100000.0
100000.0
100000.0
100000.0
100000.0
100000.0
100000.00000000013
100000.00000000093
100000.00000000572
100000.00000003459
100000.00000020993
100000.00000125544
100000.00000741254
100000.000043288
100000.00025040834
100000.00143644187
100000.00817665052
100000.04619591439
100000.25898465115
100001.43984219508
100007.93046064633
100043.2142434579
100232.46551987664
101228.60346356912
106295.99013278636
129938.02964863119
216419.01560418963
427583.01044065773
768573.280940769
1.140363122842376e6
1.395108376034905e6
1.4774316964248396e6
1.4652647892791096e6
1.4316676026763003e6
100000.0
100000.0
100000.0
100000.0
100000.0
100000.0
100000.0
100000.0
100000.0
100000.0
100000.0
100000.0
100000.0
100000.0
100000.0
100000.0
100000.0
100000.0
100000.0
100000.0
100000.00000000013
100000.00000000092
100000.00000000531
100000.0000000324
100000.00000019648
100000.00000117111
100000.00000688451
100000.00004000733
100000.00023015168
100000.00131208582
100000.00741758697
100000.0415910336
100000.23124175906
100001.27402877157
100006.94858699961
100037.46341731762
100199.24474478331
101040.67002188407
105275.87492183203
125012.26764739063
199024.17845889082
387635.32019923144
705410.4769737559
1.0673815364297584e6
1.3308818742186471e6
1.4293641614362348e6
1.428296087956183e6
1.4071623499018901e6
100000.0
100000.0
100000.0
100000.0
100000.0
100000.0
100000.0
100000.0
100000.0
100000.0
100000.0
100000.0
100000.0
100000.0
100000.0
100000.0
100000.0
100000.0
100000.0
100000.0
100000.00000000012
100000.00000000077
100000.0000000048
100000.00000002992
100000.00000018056
100000.00000107045
100000.000006262
100000.00003618294
100000.00020682382
100000.00117071875
100000.00656645429
100000.03650173165
100000.20104181598
100001.0963702241
100005.91385270689
100031.50667482575
100165.44140861167
100852.77579510515
104270.94816239843
120154.82393560119
181287.447126125
345127.0506431898
635937.2837745504
985097.8523557484
1.2574101668116373e6
1.3746823529951996e6
1.387708722945635e6
1.3832933218923288e6
100000.0
100000.0
100000.0
100000.0
100000.0
100000.0
100000.0
100000.0
100000.0
100000.0
100000.0
100000.0
100000.0
100000.0
100000.0
100000.0
100000.0
100000.0
100000.0
100000.0
100000.00000000012
100000.00000000065
100000.00000000438
100000.00000002692
100000.00000016202
100000.0000009563
100000.0000055616
100000.00003192887
100000.00018118879
100000.0010173784
100000.00565589656
100000.03113592479
100000.1696854393
100000.91484815744
100004.87423330054
100025.62584113015
100132.6679358381
100673.84472893941
103328.3654228053
115597.86305908732
164008.2830045644
301380.44820819004
561063.5600441324
893029.0544824208
1.1727513995220072e6
1.3109082308748683e6
1.3413368476413626e6
1.359508980865379e6
100000.0
100000.0
100000.0
100000.0
100000.0
100000.0
100000.0
100000.0
100000.0
100000.0
100000.0
100000.0
100000.0
100000.0
100000.0
100000.0
100000.0
100000.0
100000.0
100000.0
100000.00000000015
100000.00000000061
100000.00000000381
100000.00000002372
100000.0000001417
100000.00000083225
100000.00000481002
100000.00002741642
100000.00015432858
100000.00085880596
100000.00472734704
100000.02574445294
100000.13866611305
100000.73818972512
100003.87965121522
100020.09956866544
100102.43575900992
100511.80226670904
102488.15235581524
111543.27374138166
148018.76911728104
258081.01713731812
482239.33976418764
790873.7339902743
1.0743924558846932e6
1.234325437165273e6
1.2853155844757243e6
1.3337153928237867e6
100000.0
100000.0
100000.0
100000.0
100000.0
100000.0
100000.0
100000.0
100000.0
100000.0
100000.0
100000.0
100000.0
100000.0
100000.0
100000.0
100000.0
100000.0
100000.0
100000.0
100000.00000000012
100000.00000000055
100000.00000000338
100000.00000002026
100000.0000001207
100000.00000070431
100000.00000404172
100000.00002285485
100000.00012751087
100000.00070259074
100000.00382557207
100000.02058713544
100000.10946431616
100000.57465358246
100002.97504180795
100015.16519045045
100075.95460386168
100372.57168722127
101778.39024736173
108135.72036231795
134080.7532521226
217276.1816708092
401785.6210038138
678948.0876359309
959355.8098679264
1.139623228134372e6
1.2131511569688197e6
1.2993545750567594e6
100000.0
100000.0
100000.0
100000.0
100000.0
100000.0
100000.0
100000.0
100000.0
100000.0
100000.0
100000.0
100000.0
100000.0
100000.0
100000.0
100000.0
100000.0
100000.0
100000.0
100000.00000000006
100000.00000000044
100000.00000000281
100000.00000001694
100000.00000009977
100000.00000057819
100000.00000329284
100000.0000184611
100000.00010200929
100000.00055607084
100000.00299212868
100000.01589466659
100000.08333128503
100000.43083969185
100002.19404074736
100010.9867593435
100053.97994309884
100259.39324582205
101212.28027098703
105444.17995908778
122754.26985646496
181248.21744998946
323374.6726073156
559181.8453549147
824582.5029516666
1.0187834557208042e6
1.112034075785968e6
1.2301187376163187e6
100000.0
100000.0
100000.0
100000.0
100000.0
100000.0
100000.0
100000.0
100000.0
100000.0
100000.0
100000.0
100000.0
100000.0
100000.0
100000.0
100000.0
100000.0
100000.0
100000.0
100000.0000000001
100000.00000000042
100000.00000000227
100000.00000001356
100000.00000007993
100000.00000045972
100000.00000259743
100000.00001442959
100000.00007891432
100000.00042525532
100000.00225930895
100000.01183556273
100000.06111454379
100000.3108065059
100001.55475999923
100007.63637794286
100036.7399763013
100172.58902788845
100787.5188160358
103456.09773542329
114264.84024102663
152098.19671073265
252400.97597150353
437386.1568165284
669014.6577804971
853842.268249988
919556.8218309156
854888.7804329392
100000.0
100000.0
100000.0
100000.0
100000.0
100000.0
100000.0
100000.0
100000.0
100000.0
100000.0
100000.0
100000.0
100000.0
100000.0
100000.0
100000.0
100000.0
100000.0
100000.0
100000.00000000003
100000.00000000028
100000.00000000176
100000.00000001061
100000.00000006189
100000.00000035374
100000.00000198174
100000.00001090376
100000.00005898869
100000.00031404367
100000.00164615351
100000.00849682899
100000.04317119253
100000.21572969166
100001.0587841181
100005.09393042681
100023.9632337
100109.8530709952
100488.29640678276
102086.69542926234
108433.23512889499
130958.61386837796
195153.11190802613
327203.814455526
513769.0043653506
684100.5117964684
757311.9211998128
705590.8226739208
100000.0
100000.0
100000.0
100000.0
100000.0
100000.0
100000.0
100000.0
100000.0
100000.0
100000.0
100000.0
100000.0
100000.0
100000.0
100000.0
100000.0
100000.0
100000.0
100000.0
99999.99999999997
100000.00000000015
100000.0000000013
100000.00000000815
100000.00000004633
100000.00000026316
100000.0000014614
100000.0000079626
100000.0000425962
100000.00022393574
100000.00115749467
100000.0058830013
100000.02938987488
100000.14418711585
100000.69367648698
100003.26591056616
100015.0069833842
100067.06184059345
100289.99893986013
101204.27712078806
104740.48964750579
117226.33403812673
154543.4577652504
239498.56442421366
376162.94635371026
522818.3045019901
610083.320010236
600461.2540014158
100000.0
100000.0
100000.0
100000.0
100000.0
100000.0
100000.0
100000.0
100000.0
100000.0
100000.0
100000.0
100000.0
100000.0
100000.0
100000.0
100000.0
100000.0
100000.0
100000.0
99999.99999999997
100000.00000000012
100000.00000000103
100000.0000000059
100000.00000003351
100000.00000018901
100000.00000104164
100000.00000561903
100000.00002972016
100000.00015425014
100000.00078595766
100000.00393190536
100000.01930481647
100000.09293671163
100000.43804494124
100002.01714722757
100009.04927611831
100039.40380171195
100165.71227694706
100668.30339051742
102556.5322990761
109105.68429069269
129079.93626135027
178284.68993108347
268004.62446499174
381538.43306067673
471681.1590022299
497872.3728053939
100000.0
100000.0
100000.0
100000.0
100000.0
100000.0
100000.0
100000.0
100000.0
100000.0
100000.0
100000.0
100000.0
100000.0
100000.0
100000.0
100000.0
100000.0
100000.0
100000.0
100000.0
100000.00000000013
100000.00000000071
100000.000000004
100000.00000002344
100000.0000001315
100000.00000071767
100000.00000383324
100000.00002004608
100000.00010271263
100000.0005158801
100000.00253997222
100000.01225437214
100000.05788064965
100000.26723863823
100001.20350836325
100005.271377286
100022.37094234412
100091.53436782636
100358.68147925938
101333.21485971587
104633.6255831521
114688.65202430415
140668.56852241862
193246.02769523172
270774.50390281266
348599.9788018943
393584.9777935313
100000.0
100000.0
100000.0
100000.0
100000.0
100000.0
100000.0
100000.0
100000.0
100000.0
100000.0
100000.0
100000.0
100000.0
100000.0
100000.0
100000.0
100000.0
100000.0
100000.0
100000.0
100000.00000000015
100000.00000000045
100000.00000000278
100000.00000001585
100000.00000008833
100000.00000047815
100000.00000252898
100000.00001308044
100000.00006618166
100000.000327718
100000.00158829629
100000.00753115625
100000.03490569642
100000.15790142755
100000.69565743774
100002.97622420752
100012.31856338306
100049.08729059674
100187.12338756771
100676.55090846519
102292.48762193392
107151.74200459127
119953.94293942081
147783.13137793736
194376.03617569548
250921.72501800698
297145.17352990754
100000.0
100000.0
100000.0
100000.0
100000.0
100000.0
100000.0
100000.0
100000.0
100000.0
100000.0
100000.0
100000.0
100000.0
100000.0
100000.0
100000.0
100000.0
100000.0
100000.0
100000.0
100000.00000000003
100000.00000000029
100000.00000000178
100000.00000001029
100000.00000005736
100000.00000030803
100000.0000016148
100000.00000826402
100000.00004130715
100000.00020175253
100000.00096292427
100000.00448934446
100000.02042738337
100000.09058431622
100000.39065384517
100001.63379634521
100006.6019024116
100025.65430373386
100095.29141758618
100335.6964826615
101110.08473260398
103397.84534312756
109433.67654764383
123079.0361090344
148104.35117697378
183329.07142173586
219657.8024033236
100000.0
100000.0
100000.0
100000.0
100000.0
100000.0
100000.0
100000.0
100000.0
100000.0
100000.0
100000.0
100000.0
100000.0
100000.0
100000.0
100000.0
100000.0
100000.0
100000.0
100000.0
99999.99999999997
100000.00000000015
100000.00000000109
100000.00000000652
100000.00000003596
100000.00000019207
100000.00000099865
100000.0000050593
100000.00002499972
100000.00012051829
100000.00056684471
100000.00260027302
100000.01162415893
100000.05057026527
100000.21367248894
100000.87445689805
100003.45402373727
100013.10851845301
100047.52900138195
100163.46419940762
100528.42191114572
101586.92989410913
104359.77227634107
110734.54203356396
123102.5197827264
142470.5277380467
166050.4517610806
100000.0
100000.0
100000.0
100000.0
100000.0
100000.0
100000.0
100000.0
100000.0
100000.0
100000.0
100000.0
100000.0
100000.0
100000.0
100000.0
100000.0
100000.0
100000.0
100000.0
100000.0
100000.0
100000.0000000001
100000.00000000071
100000.00000000405
100000.00000002181
100000.00000011586
100000.00000059826
100000.00000300378
100000.00001468547
100000.00006993584
100000.00032444012
100000.00146572222
100000.00644350039
100000.02752884998
100000.11408569617
100000.45743937531
100001.76863537027
100006.56597964719
100023.28163772942
100078.32855127989
100248.01309290169
100731.64386553326
101985.95297303952
104883.88980617085
110685.32445044172
120427.24671901527
133749.83456366658
100000.0
100000.0
100000.0
100000.0
100000.0
100000.0
100000.0
100000.0
100000.0
100000.0
100000.0
100000.0
100000.0
100000.0
100000.0
100000.0
100000.0
100000.0
100000.0
100000.0
100000.0
100000.0
100000.00000000015
100000.00000000036
100000.00000000227
100000.0000000129
100000.00000006786
100000.0000003475
100000.00000173051
100000.0000083796
100000.00003946206
100000.00018075894
100000.00080511151
100000.0034845658
100000.01463742195
100000.05957234805
100000.23434092561
100000.88820795063
100003.23089012627
100011.2236567612
100037.01111607894
100115.00859692472
100333.80422197087
100895.44819323017
102192.86637888207
104835.29519686027
109471.40489628272
116329.12066641959
100000.0
100000.0
100000.0
100000.0
100000.0
100000.0
100000.0
100000.0
100000.0
100000.0
100000.0
100000.0
100000.0
100000.0
100000.0
100000.0
100000.0
100000.0
100000.0
100000.0
100000.0
100000.0
100000.0000000001
100000.00000000017
100000.00000000137
100000.00000000733
100000.00000003849
100000.0000001957
100000.0000009681
100000.00000464758
100000.00002166854
100000.00009811875
100000.00043140753
100000.00184060901
100000.00761213337
100000.03046680703
100000.11775119731
100000.43819376735
100001.564370665
100005.33359530897
100017.271011768
100052.76742043483
100150.92928015882
100400.49842808099
100975.87960482786
102159.7733842763
104296.84999623144
107629.45908832352
100000.0
100000.0
100000.0
100000.0
100000.0
100000.0
100000.0
100000.0
100000.0
100000.0
100000.0
100000.0
100000.0
100000.0
100000.0
100000.0
100000.0
100000.0
100000.0
100000.0
100000.0
100000.0
99999.99999999997
100000.0000000001
100000.00000000079
100000.00000000396
100000.00000002107
100000.00000010717
100000.00000052594
100000.00000250671
100000.0000115848
100000.00005192541
100000.00022567384
100000.00095048058
100000.00387564219
100000.0152774595
100000.05810221369
100000.2126282697
100000.74624536985
100002.50137869986
100007.9679019362
100023.97709033062
100067.6906415937
100177.87323998367
100431.28553773763
100956.27847668325
101923.08750074476
103487.8625789454
100000.0
100000.0
100000.0
100000.0
100000.0
100000.0
100000.0
100000.0
100000.0
100000.0
100000.0
100000.0
100000.0