# vtk DataFile Version 2.0
JuliaCFD
ASCII
DATASET UNSTRUCTURED_GRID

POINTS 32898 float
0.0 0.0 -0.05
0.0125 0.0 -0.05
0.025 0.0 -0.05
0.0375 0.0 -0.05
0.05 0.0 -0.05
0.0625 0.0 -0.05
0.075 0.0 -0.05
0.0875 0.0 -0.05
0.1 0.0 -0.05
0.1125 0.0 -0.05
0.125 0.0 -0.05
0.1375 0.0 -0.05
0.15 0.0 -0.05
0.1625 0.0 -0.05
0.175 0.0 -0.05
0.1875 0.0 -0.05
0.2 0.0 -0.05
0.2125 0.0 -0.05
0.225 0.0 -0.05
0.2375 0.0 -0.05
0.25 0.0 -0.05
0.2625 0.0 -0.05
0.275 0.0 -0.05
0.2875 0.0 -0.05
0.3 0.0 -0.05
0.3125 0.0 -0.05
0.325 0.0 -0.05
0.3375 0.0 -0.05
0.35 0.0 -0.05
0.3625 0.0 -0.05
0.375 0.0 -0.05
0.3875 0.0 -0.05
0.4 0.0 -0.05
0.4125 0.0 -0.05
0.425 0.0 -0.05
0.4375 0.0 -0.05
0.45 0.0 -0.05
0.4625 0.0 -0.05
0.475 0.0 -0.05
0.4875 0.0 -0.05
0.5 0.0 -0.05
0.5125 0.0 -0.05
0.525 0.0 -0.05
0.5375 0.0 -0.05
0.55 0.0 -0.05
0.5625 0.0 -0.05
0.575 0.0 -0.05
0.5875 0.0 -0.05
0.6 0.0 -0.05
0.0 0.0125 -0.05
0.0125 0.0125 -0.05
0.025 0.0125 -0.05
0.0375 0.0125 -0.05
0.05 0.0125 -0.05
0.0625 0.0125 -0.05
0.075 0.0125 -0.05
0.0875 0.0125 -0.05
0.1 0.0125 -0.05
0.1125 0.0125 -0.05
0.125 0.0125 -0.05
0.1375 0.0125 -0.05
0.15 0.0125 -0.05
0.1625 0.0125 -0.05
0.175 0.0125 -0.05
0.1875 0.0125 -0.05
0.2 0.0125 -0.05
0.2125 0.0125 -0.05
0.225 0.0125 -0.05
0.2375 0.0125 -0.05
0.25 0.0125 -0.05
0.2625 0.0125 -0.05
0.275 0.0125 -0.05
0.2875 0.0125 -0.05
0.3 0.0125 -0.05
0.3125 0.0125 -0.05
0.325 0.0125 -0.05
0.3375 0.0125 -0.05
0.35 0.0125 -0.05
0.3625 0.0125 -0.05
0.375 0.0125 -0.05
0.3875 0.0125 -0.05
0.4 0.0125 -0.05
0.4125 0.0125 -0.05
0.425 0.0125 -0.05
0.4375 0.0125 -0.05
0.45 0.0125 -0.05
0.4625 0.0125 -0.05
0.475 0.0125 -0.05
0.4875 0.0125 -0.05
0.5 0.0125 -0.05
0.5125 0.0125 -0.05
0.525 0.0125 -0.05
0.5375 0.0125 -0.05
0.55 0.0125 -0.05
0.5625 0.0125 -0.05
0.575 0.0125 -0.05
0.5875 0.0125 -0.05
0.6 0.0125 -0.05
0.0 0.025 -0.05
0.0125 0.025 -0.05
0.025 0.025 -0.05
0.0375 0.025 -0.05
0.05 0.025 -0.05
0.0625 0.025 -0.05
0.075 0.025 -0.05
0.0875 0.025 -0.05
0.1 0.025 -0.05
0.1125 0.025 -0.05
0.125 0.025 -0.05
0.1375 0.025 -0.05
0.15 0.025 -0.05
0.1625 0.025 -0.05
0.175 0.025 -0.05
0.1875 0.025 -0.05
0.2 0.025 -0.05
0.2125 0.025 -0.05
0.225 0.025 -0.05
0.2375 0.025 -0.05
0.25 0.025 -0.05
0.2625 0.025 -0.05
0.275 0.025 -0.05
0.2875 0.025 -0.05
0.3 0.025 -0.05
0.3125 0.025 -0.05
0.325 0.025 -0.05
0.3375 0.025 -0.05
0.35 0.025 -0.05
0.3625 0.025 -0.05
0.375 0.025 -0.05
0.3875 0.025 -0.05
0.4 0.025 -0.05
0.4125 0.025 -0.05
0.425 0.025 -0.05
0.4375 0.025 -0.05
0.45 0.025 -0.05
0.4625 0.025 -0.05
0.475 0.025 -0.05
0.4875 0.025 -0.05
0.5 0.025 -0.05
0.5125 0.025 -0.05
0.525 0.025 -0.05
0.5375 0.025 -0.05
0.55 0.025 -0.05
0.5625 0.025 -0.05
0.575 0.025 -0.05
0.5875 0.025 -0.05
0.6 0.025 -0.05
0.0 0.0375 -0.05
0.0125 0.0375 -0.05
0.025 0.0375 -0.05
0.0375 0.0375 -0.05
0.05 0.0375 -0.05
0.0625 0.0375 -0.05
0.075 0.0375 -0.05
0.0875 0.0375 -0.05
0.1 0.0375 -0.05
0.1125 0.0375 -0.05
0.125 0.0375 -0.05
0.1375 0.0375 -0.05
0.15 0.0375 -0.05
0.1625 0.0375 -0.05
0.175 0.0375 -0.05
0.1875 0.0375 -0.05
0.2 0.0375 -0.05
0.2125 0.0375 -0.05
0.225 0.0375 -0.05
0.2375 0.0375 -0.05
0.25 0.0375 -0.05
0.2625 0.0375 -0.05
0.275 0.0375 -0.05
0.2875 0.0375 -0.05
0.3 0.0375 -0.05
0.3125 0.0375 -0.05
0.325 0.0375 -0.05
0.3375 0.0375 -0.05
0.35 0.0375 -0.05
0.3625 0.0375 -0.05
0.375 0.0375 -0.05
0.3875 0.0375 -0.05
0.4 0.0375 -0.05
0.4125 0.0375 -0.05
0.425 0.0375 -0.05
0.4375 0.0375 -0.05
0.45 0.0375 -0.05
0.4625 0.0375 -0.05
0.475 0.0375 -0.05
0.4875 0.0375 -0.05
0.5 0.0375 -0.05
0.5125 0.0375 -0.05
0.525 0.0375 -0.05
0.5375 0.0375 -0.05
0.55 0.0375 -0.05
0.5625 0.0375 -0.05
0.575 0.0375 -0.05
0.5875 0.0375 -0.05
0.6 0.0375 -0.05
0.0 0.05 -0.05
0.0125 0.05 -0.05
0.025 0.05 -0.05
0.0375 0.05 -0.05
0.05 0.05 -0.05
0.0625 0.05 -0.05
0.075 0.05 -0.05
0.0875 0.05 -0.05
0.1 0.05 -0.05
0.1125 0.05 -0.05
0.125 0.05 -0.05
0.1375 0.05 -0.05
0.15 0.05 -0.05
0.1625 0.05 -0.05
0.175 0.05 -0.05
0.1875 0.05 -0.05
0.2 0.05 -0.05
0.2125 0.05 -0.05
0.225 0.05 -0.05
0.2375 0.05 -0.05
0.25 0.05 -0.05
0.2625 0.05 -0.05
0.275 0.05 -0.05
0.2875 0.05 -0.05
0.3 0.05 -0.05
0.3125 0.05 -0.05
0.325 0.05 -0.05
0.3375 0.05 -0.05
0.35 0.05 -0.05
0.3625 0.05 -0.05
0.375 0.05 -0.05
0.3875 0.05 -0.05
0.4 0.05 -0.05
0.4125 0.05 -0.05
0.425 0.05 -0.05
0.4375 0.05 -0.05
0.45 0.05 -0.05
0.4625 0.05 -0.05
0.475 0.05 -0.05
0.4875 0.05 -0.05
0.5 0.05 -0.05
0.5125 0.05 -0.05
0.525 0.05 -0.05
0.5375 0.05 -0.05
0.55 0.05 -0.05
0.5625 0.05 -0.05
0.575 0.05 -0.05
0.5875 0.05 -0.05
0.6 0.05 -0.05
0.0 0.0625 -0.05
0.0125 0.0625 -0.05
0.025 0.0625 -0.05
0.0375 0.0625 -0.05
0.05 0.0625 -0.05
0.0625 0.0625 -0.05
0.075 0.0625 -0.05
0.0875 0.0625 -0.05
0.1 0.0625 -0.05
0.1125 0.0625 -0.05
0.125 0.0625 -0.05
0.1375 0.0625 -0.05
0.15 0.0625 -0.05
0.1625 0.0625 -0.05
0.175 0.0625 -0.05
0.1875 0.0625 -0.05
0.2 0.0625 -0.05
0.2125 0.0625 -0.05
0.225 0.0625 -0.05
0.2375 0.0625 -0.05
0.25 0.0625 -0.05
0.2625 0.0625 -0.05
0.275 0.0625 -0.05
0.2875 0.0625 -0.05
0.3 0.0625 -0.05
0.3125 0.0625 -0.05
0.325 0.0625 -0.05
0.3375 0.0625 -0.05
0.35 0.0625 -0.05
0.3625 0.0625 -0.05
0.375 0.0625 -0.05
0.3875 0.0625 -0.05
0.4 0.0625 -0.05
0.4125 0.0625 -0.05
0.425 0.0625 -0.05
0.4375 0.0625 -0.05
0.45 0.0625 -0.05
0.4625 0.0625 -0.05
0.475 0.0625 -0.05
0.4875 0.0625 -0.05
0.5 0.0625 -0.05
0.5125 0.0625 -0.05
0.525 0.0625 -0.05
0.5375 0.0625 -0.05
0.55 0.0625 -0.05
0.5625 0.0625 -0.05
0.575 0.0625 -0.05
0.5875 0.0625 -0.05
0.6 0.0625 -0.05
0.0 0.075 -0.05
0.0125 0.075 -0.05
0.025 0.075 -0.05
0.0375 0.075 -0.05
0.05 0.075 -0.05
0.0625 0.075 -0.05
0.075 0.075 -0.05
0.0875 0.075 -0.05
0.1 0.075 -0.05
0.1125 0.075 -0.05
0.125 0.075 -0.05
0.1375 0.075 -0.05
0.15 0.075 -0.05
0.1625 0.075 -0.05
0.175 0.075 -0.05
0.1875 0.075 -0.05
0.2 0.075 -0.05
0.2125 0.075 -0.05
0.225 0.075 -0.05
0.2375 0.075 -0.05
0.25 0.075 -0.05
0.2625 0.075 -0.05
0.275 0.075 -0.05
0.2875 0.075 -0.05
0.3 0.075 -0.05
0.3125 0.075 -0.05
0.325 0.075 -0.05
0.3375 0.075 -0.05
0.35 0.075 -0.05
0.3625 0.075 -0.05
0.375 0.075 -0.05
0.3875 0.075 -0.05
0.4 0.075 -0.05
0.4125 0.075 -0.05
0.425 0.075 -0.05
0.4375 0.075 -0.05
0.45 0.075 -0.05
0.4625 0.075 -0.05
0.475 0.075 -0.05
0.4875 0.075 -0.05
0.5 0.075 -0.05
0.5125 0.075 -0.05
0.525 0.075 -0.05
0.5375 0.075 -0.05
0.55 0.075 -0.05
0.5625 0.075 -0.05
0.575 0.075 -0.05
0.5875 0.075 -0.05
0.6 0.075 -0.05
0.0 0.0875 -0.05
0.0125 0.0875 -0.05
0.025 0.0875 -0.05
0.0375 0.0875 -0.05
0.05 0.0875 -0.05
0.0625 0.0875 -0.05
0.075 0.0875 -0.05
0.0875 0.0875 -0.05
0.1 0.0875 -0.05
0.1125 0.0875 -0.05
0.125 0.0875 -0.05
0.1375 0.0875 -0.05
0.15 0.0875 -0.05
0.1625 0.0875 -0.05
0.175 0.0875 -0.05
0.1875 0.0875 -0.05
0.2 0.0875 -0.05
0.2125 0.0875 -0.05
0.225 0.0875 -0.05
0.2375 0.0875 -0.05
0.25 0.0875 -0.05
0.2625 0.0875 -0.05
0.275 0.0875 -0.05
0.2875 0.0875 -0.05
0.3 0.0875 -0.05
0.3125 0.0875 -0.05
0.325 0.0875 -0.05
0.3375 0.0875 -0.05
0.35 0.0875 -0.05
0.3625 0.0875 -0.05
0.375 0.0875 -0.05
0.3875 0.0875 -0.05
0.4 0.0875 -0.05
0.4125 0.0875 -0.05
0.425 0.0875 -0.05
0.4375 0.0875 -0.05
0.45 0.0875 -0.05
0.4625 0.0875 -0.05
0.475 0.0875 -0.05
0.4875 0.0875 -0.05
0.5 0.0875 -0.05
0.5125 0.0875 -0.05
0.525 0.0875 -0.05
0.5375 0.0875 -0.05
0.55 0.0875 -0.05
0.5625 0.0875 -0.05
0.575 0.0875 -0.05
0.5875 0.0875 -0.05
0.6 0.0875 -0.05
0.0 0.1 -0.05
0.0125 0.1 -0.05
0.025 0.1 -0.05
0.0375 0.1 -0.05
0.05 0.1 -0.05
0.0625 0.1 -0.05
0.075 0.1 -0.05
0.0875 0.1 -0.05
0.1 0.1 -0.05
0.1125 0.1 -0.05
0.125 0.1 -0.05
0.1375 0.1 -0.05
0.15 0.1 -0.05
0.1625 0.1 -0.05
0.175 0.1 -0.05
0.1875 0.1 -0.05
0.2 0.1 -0.05
0.2125 0.1 -0.05
0.225 0.1 -0.05
0.2375 0.1 -0.05
0.25 0.1 -0.05
0.2625 0.1 -0.05
0.275 0.1 -0.05
0.2875 0.1 -0.05
0.3 0.1 -0.05
0.3125 0.1 -0.05
0.325 0.1 -0.05
0.3375 0.1 -0.05
0.35 0.1 -0.05
0.3625 0.1 -0.05
0.375 0.1 -0.05
0.3875 0.1 -0.05
0.4 0.1 -0.05
0.4125 0.1 -0.05
0.425 0.1 -0.05
0.4375 0.1 -0.05
0.45 0.1 -0.05
0.4625 0.1 -0.05
0.475 0.1 -0.05
0.4875 0.1 -0.05
0.5 0.1 -0.05
0.5125 0.1 -0.05
0.525 0.1 -0.05
0.5375 0.1 -0.05
0.55 0.1 -0.05
0.5625 0.1 -0.05
0.575 0.1 -0.05
0.5875 0.1 -0.05
0.6 0.1 -0.05
0.0 0.1125 -0.05
0.0125 0.1125 -0.05
0.025 0.1125 -0.05
0.0375 0.1125 -0.05
0.05 0.1125 -0.05
0.0625 0.1125 -0.05
0.075 0.1125 -0.05
0.0875 0.1125 -0.05
0.1 0.1125 -0.05
0.1125 0.1125 -0.05
0.125 0.1125 -0.05
0.1375 0.1125 -0.05
0.15 0.1125 -0.05
0.1625 0.1125 -0.05
0.175 0.1125 -0.05
0.1875 0.1125 -0.05
0.2 0.1125 -0.05
0.2125 0.1125 -0.05
0.225 0.1125 -0.05
0.2375 0.1125 -0.05
0.25 0.1125 -0.05
0.2625 0.1125 -0.05
0.275 0.1125 -0.05
0.2875 0.1125 -0.05
0.3 0.1125 -0.05
0.3125 0.1125 -0.05
0.325 0.1125 -0.05
0.3375 0.1125 -0.05
0.35 0.1125 -0.05
0.3625 0.1125 -0.05
0.375 0.1125 -0.05
0.3875 0.1125 -0.05
0.4 0.1125 -0.05
0.4125 0.1125 -0.05
0.425 0.1125 -0.05
0.4375 0.1125 -0.05
0.45 0.1125 -0.05
0.4625 0.1125 -0.05
0.475 0.1125 -0.05
0.4875 0.1125 -0.05
0.5 0.1125 -0.05
0.5125 0.1125 -0.05
0.525 0.1125 -0.05
0.5375 0.1125 -0.05
0.55 0.1125 -0.05
0.5625 0.1125 -0.05
0.575 0.1125 -0.05
0.5875 0.1125 -0.05
0.6 0.1125 -0.05
0.0 0.125 -0.05
0.0125 0.125 -0.05
0.025 0.125 -0.05
0.0375 0.125 -0.05
0.05 0.125 -0.05
0.0625 0.125 -0.05
0.075 0.125 -0.05
0.0875 0.125 -0.05
0.1 0.125 -0.05
0.1125 0.125 -0.05
0.125 0.125 -0.05
0.1375 0.125 -0.05
0.15 0.125 -0.05
0.1625 0.125 -0.05
0.175 0.125 -0.05
0.1875 0.125 -0.05
0.2 0.125 -0.05
0.2125 0.125 -0.05
0.225 0.125 -0.05
0.2375 0.125 -0.05
0.25 0.125 -0.05
0.2625 0.125 -0.05
0.275 0.125 -0.05
0.2875 0.125 -0.05
0.3 0.125 -0.05
0.3125 0.125 -0.05
0.325 0.125 -0.05
0.3375 0.125 -0.05
0.35 0.125 -0.05
0.3625 0.125 -0.05
0.375 0.125 -0.05
0.3875 0.125 -0.05
0.4 0.125 -0.05
0.4125 0.125 -0.05
0.425 0.125 -0.05
0.4375 0.125 -0.05
0.45 0.125 -0.05
0.4625 0.125 -0.05
0.475 0.125 -0.05
0.4875 0.125 -0.05
0.5 0.125 -0.05
0.5125 0.125 -0.05
0.525 0.125 -0.05
0.5375 0.125 -0.05
0.55 0.125 -0.05
0.5625 0.125 -0.05
0.575 0.125 -0.05
0.5875 0.125 -0.05
0.6 0.125 -0.05
0.0 0.1375 -0.05
0.0125 0.1375 -0.05
0.025 0.1375 -0.05
0.0375 0.1375 -0.05
0.05 0.1375 -0.05
0.0625 0.1375 -0.05
0.075 0.1375 -0.05
0.0875 0.1375 -0.05
[...]
CELL_DATA 16128
SCALARS P float 1
LOOKUP_TABLE default
100000.00000000044
100000.00000000124
100000.00000000538
100000.00000001812
100000.00000006122
100000.0000002049
100000.0000006848
100000.0000022845
100000.00000760736
100000.00002529034
100000.0000839404
100000.00027817636
100000.00092052417
100000.00304190647
100000.0100388013
100000.03308809896
100000.10892892262
100000.35819709416
100001.17660908168
100003.86094231554
100012.65654723837
100041.44578529152
100135.54670122905
100442.37746013072
101437.22439423004
104616.59083391122
114411.59581405528
142029.26189240123
207414.9694474412
328678.8842741093
501996.40521114535
694533.2996506196
862560.4767967584
980307.6599422366
1.0501850019759908e6
1.088862067262722e6
1.111505369078548e6
1.1269211079617722e6
1.1391313929388546e6
1.1496987766046475e6
1.1591428859991282e6
1.167595239860507e6
1.1750583556299303e6
1.181496755457852e6
1.186865826279014e6
1.1911235131345086e6
1.1944671294685318e6
1.2172027091841076e6
100000.00000000036
100000.00000000143
100000.00000000533
100000.00000001812
100000.00000006068
100000.00000020313
100000.00000067902
100000.00000226469
100000.00000754088
100000.00002506553
100000.00008318268
100000.00027562701
100000.00091195651
100000.0030131456
100000.00994236054
100000.03276507826
100000.10784825541
100000.3545862689
100001.16456153856
100003.8208157258
100012.5232065412
100041.00418232428
100134.09213886132
100437.63357398764
101422.05735650749
104570.12682399924
114282.2455581835
141740.39189990435
207027.0151898959
328763.7389028808
503815.00521508243
699535.1246002164
871466.1158017996
992740.0111926356
1.0651808986992494e6
1.1055207734556731e6
1.129231402015574e6
1.145379242390906e6
1.1581410941474263e6
1.1691550553730472e6
1.1789704637064366e6
1.1877250548534112e6
1.195417065901627e6
1.202004130787632e6
1.207438229648222e6
1.211685498524712e6
1.215040283664529e6
1.2382044148303873e6
100000.00000000036
100000.00000000148
100000.0000000053
100000.00000001772
100000.0000000596
100000.00000019933
100000.00000066613
100000.0000022215
100000.00000739424
100000.00002457062
100000.00008151523
100000.00027001537
100000.00089309167
100000.00294980039
100000.0097298905
100000.03205319199
100000.10546566153
100000.34662102666
100001.13796518777
100003.7321299232
100012.22796345406
100040.02337049968
100130.84397624111
100426.93452092414
101387.20114476791
104459.33050271735
113949.56167694228
140861.1841827573
205168.13539335434
325776.0318534596
500169.212802849
696151.8269971712
869120.2944283354
991615.3977430341
1.0649842147268716e6
1.105849981002757e6
1.1297810144497275e6
1.1459621009965143e6
1.158651195806936e6
1.1695330748779182e6
1.1791827611921807e6
1.187752927353997e6
1.1952520006031871e6
1.2016461108217433e6
1.2068952137969385e6
1.2109770258159516e6
1.2143416200556147e6
1.2377773452063906e6
100000.00000000045
100000.00000000141
100000.00000000518
100000.00000001717
100000.00000005792
100000.00000019376
100000.00000064715
100000.00000215696
100000.00000717632
100000.0000238359
100000.00007903996
100000.0002616862
100000.00086509688
100000.00285581057
100000.00941466275
100000.03099704106
100000.10193061482
100000.33480053123
100001.09847927284
100003.60036607308
100011.78877031979
100038.56145355472
100125.98718170777
100410.855951362
101334.39611021841
104289.31298981985
113428.51291575539
139439.5322037362
202019.93479321123
320383.2725728353
492969.24878349015
688482.5037520122
862374.9877405802
986388.719528775
1.0610522456519818e6
1.102709104361811e6
1.1270235201692528e6
1.1433484038623238e6
1.1560625582235497e6
1.166919061013716e6
1.1765282688574533e6
1.1850607391756168e6
1.1925337144908437e6
1.1989164728588548e6
1.2041671272862714e6
1.2082636864157438e6
1.2118309051962793e6
1.2357354748744424e6
100000.00000000044
100000.00000000137
100000.00000000489
100000.00000001649
100000.00000005568
100000.00000018634
100000.00000062253
100000.00000207366
100000.00000689494
100000.0000228868
100000.00007584374
100000.00025093489
100000.00082897345
100000.00273456913
100000.00900814842
100000.02963532906
100000.09737338168
100000.31956198617
100001.04756622654
100003.43039672215
100011.22178867951
100036.67177912165
100119.69704137219
100389.97169030928
101265.51495499615
104066.13920765063
112738.07689699561
137528.79436263
197711.65129788505
312868.94888155285
482776.1251281994
677476.3046098902
852584.673229086
978735.8432926188
1.0552574072036496e6
1.0980572849680113e6
1.122929069018155e6
1.1394715597972788e6
1.1522399705965882e6
1.1630842712978562e6
1.1726621544291845e6
1.18116581404921e6
1.188621283718366e6
1.194999453876039e6
1.200255565637983e6
1.2043738772765724e6
1.2081822558339052e6
1.2326847267864547e6
100000.00000000036
100000.00000000125
100000.00000000473
100000.00000001585
100000.00000005326
100000.00000017781
100000.00000059286
100000.00000197369
100000.00000655808
100000.00002175159
100000.0000720223
100000.00023808719
100000.00078582912
100000.00258983602
100000.00852310004
100000.02801125239
100000.09194009629
100000.30139918154
100000.986892846
100003.22784415142
100010.54598093143
100034.4183572887
100112.19008073575
100365.01608259865
101183.04619095316
103798.1076091855
111904.25199443552
135197.4763380621
192377.13956563183
303423.91385685536
469801.7672112011
663335.5179471904
839946.0835444629
968875.4619405298
1.0478530891277565e6
1.0921696484343163e6
1.1177720838558371e6
1.134586536827868e6
1.1474067327844775e6
1.1582131661908065e6
1.1677262288828213e6
1.176166095033589e6
1.1835702096081297e6
1.1899127174732182e6
1.1951486651972167e6
1.199277543740718e6
1.2033512663004086e6
1.228599896152954e6
100000.00000000036
100000.0000000013
100000.00000000445
100000.00000001483
100000.00000005028
100000.00000016783
100000.00000055932
100000.00000186007
100000.000006175
100000.00002046138
100000.00006768316
100000.00022351064
100000.00073691501
100000.00242586716
100000.00797397857
100000.02617392039
100000.08579747996
100000.28087806176
100000.91838081468
100002.99923882433
100009.78357297904
100031.87700454539
100103.72563873425
100336.87778710555
101090.02288025575
103495.3487921274
110958.6458254596
132528.05195490742
186171.3089842752
292241.45756898425
454194.1322666165
646096.0827972668
824394.7108226282
956713.5034835348
1.0387720093005069e6
1.0850164737191205e6
1.1115456534339236e6
1.1286913758238817e6
1.1415529798452186e6
1.1522803387073097e6
1.1616755976580726e6
1.1699958411660972e6
1.177294715452741e6
1.1835533699324084e6
1.188731308799606e6
1.1928535353422344e6
1.1972167640264092e6
1.2233914849505646e6
100000.00000000032
100000.00000000121
100000.00000000431
100000.00000001406
100000.00000004689
100000.00000015699
100000.00000052247
100000.0000017358
100000.00000575588
100000.00001905143
100000.00006294456
100000.00020760608
100000.00068359423
100000.00224729833
100000.0073765486
100000.02417693113
100000.07912776583
100000.25861844368
100000.84413978616
100002.75176952702
100008.95910014451
100029.13162220948
100094.5911390017
100306.54152288754
100989.79875899678
103169.03148888498
109936.15245719226
129612.9552385705
179272.00627803465
279546.0575242325
436118.94714136276
625774.2195309023
805803.0665277308
942067.6274151598
1.0278567832447058e6
1.0764884987117248e6
1.104175713117338e6
1.1217269107172976e6
1.1346185426353228e6
1.1452143950130043e6
1.1544215635385e6
1.1625457610271866e6
1.1696637952213273e6
1.1757696323331005e6
1.1808340955805758e6
1.1849206600595259e6
1.1895983523847098e6
1.2169279007823989e6
100000.00000000017
100000.00000000109
100000.00000000393
100000.00000001305
100000.00000004364
100000.00000014529
100000.00000048333
100000.00000160368
100000.00000531127
100000.00001755706
100000.00005792858
100000.00019079016
100000.00062728522
100000.00205895166
100000.00674719844
100000.022075978
100000.07212024978
100000.2352639586
100000.76635958829
100002.49289338969
100008.09798464728
100026.26897687947
100085.08292541828
100275.01834217546
100885.80131913496
102830.54005112879
108872.55893540707
126549.64782370094
171876.1800527612
265600.7715348181
415786.5015814872
602411.0859878793
784032.7760658121
924717.4399765186
1.0149057638039412e6
1.0664389526149952e6
1.0955594201219152e6
1.1136110202779807e6
1.1265224429643964e6
1.1369220334927393e6
1.1458495886672428e6
1.1536741091361218e6
1.1605047501835253e6
1.1663564592830483e6
1.1712215083802985e6
1.1752202709002187e6
1.180236317341723e6
1.2090237637889674e6
100000.00000000016
100000.00000000106
100000.00000000354
100000.00000001198
100000.00000004018
100000.00000013335
100000.00000044271
100000.00000146707
100000.00000485186
100000.0000160147
100000.00005275794
100000.00017347865
100000.00056939955
100000.00186561892
100000.00610218516
100000.01992620736
100000.06496198662
100000.21144919004
100000.68719366753
100002.2299210944
100007.22505669465
100023.37343123372
100075.48757940346
100243.28013675763
100781.30729045454
102490.73721149967
107802.3279132619
123435.36208828786
164193.20301815943
250706.96508021312
393463.76826909045
576094.6640014237
758956.5961671766
904419.7048276762
999682.6638939771
1.0546915910529203e6
1.0855735247769195e6
1.1042472902171125e6
1.11717104369293e6
1.1272946572145557e6
1.135823176042802e6
1.1432064009725044e6
1.149597057662279e6
1.15504179739718e6
1.159569162986038e6
1.1633843223556778e6
1.1687542241365523e6
1.199420286792381e6
100000.0000000002
100000.00000000103
100000.00000000326
100000.00000001094
100000.00000003653
100000.00000012116
100000.0000004016
100000.00000132884
100000.00000438759
100000.00001445858
100000.0000475495
100000.00015606923
100000.00051128319
100000.00167185396
100000.00545691197
100000.01777969606
100000.05782898798
100000.18776887267
100000.60865123181
100001.96963925312
100006.36323470934
100020.52234981387
100066.06603570041
100212.20528337629
100679.25942240302
102159.36078746013
106756.6919987426
120361.90182695969
156436.29280732482
235199.7768487158
369481.65507255803
546977.7108531854
730476.8342977385
880918.1526004339
981918.6511357748
1.0410408461811955e6
1.074076124376707e6
1.0935289950391718e6
1.1064635116294397e6
1.1162140592152583e6
1.1241881230168794e6
1.1309359916234948e6
1.13666624390802e6
1.1414700111547394e6
1.1454316600546944e6
1.1488844035836563e6
1.1545936979571905e6
1.187752391779758e6
100000.00000000007
100000.00000000083
100000.00000000292
100000.00000000991
100000.00000003274
100000.00000010898
100000.00000036071
100000.00000119164
100000.00000392813
100000.00001292075
100000.00004241131
100000.00013892556
100000.00045416287
100000.00148179251
100000.00482530486
100000.01568329835
100000.05087877369
100000.16475218392
100000.5325086533
100001.71800594578
100005.53248357982
100017.7825560646
100057.04162479739
100182.53862186684
100582.13340045846
101844.58145510362
105762.16875221557
117410.89399802344
148812.55366868095
219439.66432311496
344238.6657815663
515295.48832971125
698546.7519017948
853955.7952603137
961314.0881457899
1.0252498091944787e6
1.0609063509659478e6
1.0813422678599046e6
1.0942982020798088e6
1.1035609111873233e6
1.1107814427859907e6
1.116631336057451e6
1.121384012245694e6
1.1251852493150057e6
1.1282008718278448e6
1.1309510363083084e6
1.1368950188900381e6
1.173481259282157e6
100000.00000000017
100000.00000000079
100000.00000000274
100000.00000000892
100000.00000002926
100000.00000009705
100000.00000032083
100000.00000105826
100000.00000348175
100000.00001142942
100000.00003743774
100000.00012236561
100000.00039910621
100000.0012990103
100000.00421932981
100000.01367700314
100000.04424480368
100000.14284390019
100000.46024597638
100001.47993804196
100004.74910757664
100015.20800276438
100048.5924730665
100154.86684744591
100491.85786528309
101552.73399760245
104839.57522015371
114649.9065386671
141512.30772828282
203799.7248785794
318199.7811629906
481382.65932994336
663196.4134168818
823292.8832601598
937542.8822110645
1.0070479536127336e6
1.0458831387970402e6
1.0675693868059542e6
1.0805811324066771e6
1.0892277136248003e6
1.0954467734417247e6
1.1000476055735466e6
1.1033744200819712e6
1.1056284941790586e6
1.1070635842793384e6
1.108459464698173e6
1.114284550409205e6
1.1557230085537783e6
100000.00000000015
100000.00000000077
100000.00000000244
100000.00000000796
100000.00000002582
100000.00000008573
100000.00000028273
100000.0000009306
100000.0000030553
100000.00001000814
100000.00003270809
100000.00010665315
100000.0003469917
100000.00112642854
100000.00364867656
100000.011792888
100000.03803303005
100000.12239314646
100000.39301060114
100001.25919555702
100004.02538848684
100012.83866414784
100040.84819601945
100129.60884793795
100409.78571088509
101288.21951076655
104003.57570653863
112129.80651073172
134698.7061564946
188648.7612865207
291888.6875208378
445687.01536638447
624562.4510036985
788732.3390495373
910261.6764867128
986129.7847871496
1.0288033530477106e6
1.0520922206157614e6
1.0652370006986773e6
1.0731373541283873e6
1.0780612412145224e6
1.0809682697745734e6
1.082258829952264e6
1.0821529284089464e6
1.0809661242051858e6
1.0797801813343621e6
1.0845042835527016e6
1.1327760824046277e6
100000.00000000019
100000.0000000007
100000.00000000201
100000.00000000697
100000.00000002269
100000.00000007484
100000.00000024674
100000.0000008103
100000.0000026546
100000.00000867566
100000.00002828441
100000.00009199331
100000.00029849511
100000.00096626648
100000.00312061292
100000.01005467036
100000.03232056573
100000.10364960339
100000.33160717938
100001.05835788819
100003.36954452269
100010.70054275631
100033.8904454322
100107.01929599167
100336.71074147623
101053.56158815397
103262.7428627568
109883.60870891204
128498.88998701348
174330.8227160935
265871.5413368483
408776.64648415375
582919.6557821202
750153.6980301527
879126.1650086467
962155.6316375933
1.0094391413420286e6
1.0347950217248079e6
1.0482219150778693e6
1.055271974194735e6
1.0585852891554183e6
1.0592742208810686e6
1.0577372054655878e6
1.0541183810061382e6
1.0486698775979548e6
1.0426830220673105e6
1.043857096040003e6
1.100542091254797e6
100000.0
100000.00000000047
100000.0000000017
100000.000000006
100000.00000001969
100000.00000006492
100000.00000021326
100000.00000069874
100000.00000228388
100000.00000744563
100000.00002421135
100000.00007853155
100000.00025408706
100000.00082004006
100000.00263999523
100000.00847781052
100000.02715626924
100000.08676635621
100000.2765104797
100000.87887915676
100002.785960528
100008.80660243356
100027.75660509884
100087.20292116063
100272.9206566703
100849.58758378684
102620.06087446908
107926.87115781808
122998.03475919156
161143.0229081889
240731.1453201836
371336.50041009794
538710.560071866
707555.410047012
843816.9261242979
934756.148433384
987534.1447826731
1.0155650737055483e6
1.0295366214649531e6
1.035705696529982e6
1.0371300203322322e6
1.0350500973778433e6
1.029758336552195e6
1.0211085520177544e6
1.0089347138970736e6
994241.3371446533
985885.139216449
1.0443988062348198e6
100000.00000000013
100000.00000000025
100000.0000000016
100000.00000000508
100000.00000001701
100000.00000005579
100000.00000018247
100000.00000059683
100000.00000194584
100000.00000632678
100000.0000205167
100000.00006635599
100000.00021404245
100000.0006885997
100000.00220941554
100000.00707007656
100000.02256290654
100000.07180812384
100000.22789648773
100000.72120506858
100002.275624605
100007.15839025851
100022.4457753327
100070.13637820836
100218.2755063642
100675.69835861785
102073.76035359556
106259.47377217983
118237.33620447596
149314.57478127803
217031.8281587219
334150.22256705025
492567.2821052975
661103.4208687659
804076.9280572992
903542.5161574963
962797.400306965
994285.3943450967
1.0092331205209863e6
1.0146374936664571e6
1.0140270162737945e6
1.0087385762805669e6
998773.9744000831
983126.2546508459
959542.8393997569
923514.7208766978
865685.3629188477
759716.5916947348
100000.00000000013
100000.00000000044
100000.00000000124
100000.00000000437
100000.00000001436
100000.00000004728
100000.00000015482
100000.00000050494
100000.00000164178
100000.00000532338
100000.0000172131
100000.00005550204
100000.0001784595
100000.00057219774
100000.00182945133
100000.00583245687
100000.01854047921
100000.05876335046
100000.18568625179
100000.58493148764
100001.83670005015
100005.74809314395
100017.92614117257
100055.69450422336
100172.30031215106
100530.18726052616
101618.35377607358
104868.42749388648
114216.35734928767
138990.77001083273
195277.5143744512
298064.1291376068
445318.3035655228
611181.2012175889
759762.0777486206
868125.5629176985
934895.7081989961
970817.4001042468
987399.7285063564
992398.3198932318
989913.3790076011
981486.0365386979
966982.5033890143
944919.6590090299
912208.2825560587
863280.1491187327
788570.1805612097
671493.4151393343
100000.00000000006
100000.00000000017
100000.00000000114
100000.00000000361
100000.00000001215
100000.0000000399
100000.00000013017
100000.00000042317
100000.00000137209
100000.00000443589
100000.0000142996
100000.00004596042
100000.00014728472
100000.00047057848
100000.00149898388
100000.00476029878
100000.015070273
100000.04755859649
100000.14959691798
100000.46898506797
100001.46516330053
100004.56078562594
100014.14287114143
100043.67797802387
100134.28137333426
100410.57130285897
101245.73960345623
103731.25235878302
110899.30342664722
130225.541017309
175868.20434873484
263932.52917292493
397972.2623057717
558433.0137775632
710904.2112986202
828147.8853070994
903445.7664951149
944965.1118242809
964097.7166453622
969333.3432394321
965474.8255472241
954465.153517863
936331.5646456585
909660.2718583132
871627.2453502001
817786.0494559834
742100.4966683727
638114.9067797491
100000.00000000006
100000.0000000002
100000.00000000095
100000.00000000314
100000.00000001003
100000.00000003328
100000.00000010821
100000.00000035124
100000.00000113575
100000.0000036608
100000.00001176386
100000.00003768441
100000.00012034066
100000.00038307944
100000.00121555434
100000.0038445517
100000.01211921593
100000.0380737696
100000.11919487316
100000.37180828533
100001.15544675922
100003.5766579201
100011.02582037656
100033.8398803545
100103.35756916396
100313.90362115017
100946.2600109836
102819.45429444691
108223.99969838661
122984.88358780992
159062.62666053322
232547.53078972016
351672.1460527521
503789.0036402188
657782.8018599206
783335.2157434529
868016.312042619
916435.9931213375
939286.9575950804
945677.6581977883
941228.2247887587
928492.057675688
907928.8171553176
878562.7179651456
838312.1369623956
784250.6076933083
713282.9507046664
623911.9170459268
100000.00000000006
100000.00000000017
100000.0000000009
100000.00000000269
100000.00000000845
100000.00000002749
100000.00000008936
100000.00000028896
100000.00000093138
100000.00000299269
100000.0000095851
100000.00003059843
100000.0000973572
100000.00030873416
100000.00097572245
100000.00307301409
100000.00964418247
100000.03015696215
100000.09394677031
100000.29153449256
100000.9010378123
100002.77306001552
100008.49648610789
100025.90929889829
100078.60034266376
100237.04482322185
100709.62593996499
102101.70832077363
106111.90913301049
117160.92399212749
144955.90328067666
204561.5797976511
307617.1075782145
448458.63438776915
600996.1779924963
733571.8538161778
828153.6691335113
884817.6766046891
912770.688654682
921479.6831809462
917432.5437339798
903967.2323751977
882174.9422996775
851705.2575508873
811313.7653491793
759359.988979874
694591.1817063339
617527.0782133691
100000.00000000015
100000.00000000022
100000.00000000061
100000.00000000221
100000.00000000706
100000.00000002258
100000.00000007296
100000.0000002355
100000.00000075674
100000.0000024236
100000.000007736
100000.00002460717
100000.00007799988
100000.00024637257
100000.00077540785
100000.00243149714
100000.007595963
100000.02363794776
100000.07326529158
100000.22614259408
100000.69499985703
100002.12625048829
100006.4738558162
100019.61082086911
100059.07859675826
100176.88017868457
100525.65730457481
101546.48431514144
104477.58067179844
112593.62874924019
133479.28347750567
180416.17354912419
266955.6885237733
393879.7461397987
541515.8306453581
678998.545915736
783441.1691736802