# vtk DataFile Version 2.0
JuliaCFD
ASCII
DATASET UNSTRUCTURED_GRID

POINTS 32898 float
0.0 0.0 -0.05
0.0125 0.0 -0.05
0.025 0.0 -0.05
0.0375 0.0 -0.05
0.05 0.0 -0.05
0.0625 0.0 -0.05
0.075 0.0 -0.05
0.0875 0.0 -0.05
0.1 0.0 -0.05
0.1125 0.0 -0.05
0.125 0.0 -0.05
0.1375 0.0 -0.05
0.15 0.0 -0.05
0.1625 0.0 -0.05
0.175 0.0 -0.05
0.1875 0.0 -0.05
0.2 0.0 -0.05
0.2125 0.0 -0.05
0.225 0.0 -0.05
0.2375 0.0 -0.05
0.25 0.0 -0.05
0.2625 0.0 -0.05
0.275 0.0 -0.05
0.2875 0.0 -0.05
0.3 0.0 -0.05
0.3125 0.0 -0.05
0.325 0.0 -0.05
0.3375 0.0 -0.05
0.35 0.0 -0.05
0.3625 0.0 -0.05
0.375 0.0 -0.05
0.3875 0.0 -0.05
0.4 0.0 -0.05
0.4125 0.0 -0.05
0.425 0.0 -0.05
0.4375 0.0 -0.05
0.45 0.0 -0.05
0.4625 0.0 -0.05
0.475 0.0 -0.05
0.4875 0.0 -0.05
0.5 0.0 -0.05
0.5125 0.0 -0.05
0.525 0.0 -0.05
0.5375 0.0 -0.05
0.55 0.0 -0.05
0.5625 0.0 -0.05
0.575 0.0 -0.05
0.5875 0.0 -0.05
0.6 0.0 -0.05
0.0 0.0125 -0.05
0.0125 0.0125 -0.05
0.025 0.0125 -0.05
0.0375 0.0125 -0.05
0.05 0.0125 -0.05
0.0625 0.0125 -0.05
0.075 0.0125 -0.05
0.0875 0.0125 -0.05
0.1 0.0125 -0.05
0.1125 0.0125 -0.05
0.125 0.0125 -0.05
0.1375 0.0125 -0.05
0.15 0.0125 -0.05
0.1625 0.0125 -0.05
0.175 0.0125 -0.05
0.1875 0.0125 -0.05
0.2 0.0125 -0.05
0.2125 0.0125 -0.05
0.225 0.0125 -0.05
0.2375 0.0125 -0.05
0.25 0.0125 -0.05
0.2625 0.0125 -0.05
0.275 0.0125 -0.05
0.2875 0.0125 -0.05
0.3 0.0125 -0.05
0.3125 0.0125 -0.05
0.325 0.0125 -0.05
0.3375 0.0125 -0.05
0.35 0.0125 -0.05
0.3625 0.0125 -0.05
0.375 0.0125 -0.05
0.3875 0.0125 -0.05
0.4 0.0125 -0.05
0.4125 0.0125 -0.05
0.425 0.0125 -0.05
0.4375 0.0125 -0.05
0.45 0.0125 -0.05
0.4625 0.0125 -0.05
0.475 0.0125 -0.05
0.4875 0.0125 -0.05
0.5 0.0125 -0.05
0.5125 0.0125 -0.05
0.525 0.0125 -0.05
0.5375 0.0125 -0.05
0.55 0.0125 -0.05
0.5625 0.0125 -0.05
0.575 0.0125 -0.05
0.5875 0.0125 -0.05
0.6 0.0125 -0.05
0.0 0.025 -0.05
0.0125 0.025 -0.05
0.025 0.025 -0.05
0.0375 0.025 -0.05
0.05 0.025 -0.05
0.0625 0.025 -0.05
0.075 0.025 -0.05
0.0875 0.025 -0.05
0.1 0.025 -0.05
0.1125 0.025 -0.05
0.125 0.025 -0.05
0.1375 0.025 -0.05
0.15 0.025 -0.05
0.1625 0.025 -0.05
0.175 0.025 -0.05
0.1875 0.025 -0.05
0.2 0.025 -0.05
0.2125 0.025 -0.05
0.225 0.025 -0.05
0.2375 0.025 -0.05
0.25 0.025 -0.05
0.2625 0.025 -0.05
0.275 0.025 -0.05
0.2875 0.025 -0.05
0.3 0.025 -0.05
0.3125 0.025 -0.05
0.325 0.025 -0.05
0.3375 0.025 -0.05
0.35 0.025 -0.05
0.3625 0.025 -0.05
0.375 0.025 -0.05
0.3875 0.025 -0.05
0.4 0.025 -0.05
0.4125 0.025 -0.05
0.425 0.025 -0.05
0.4375 0.025 -0.05
0.45 0.025 -0.05
0.4625 0.025 -0.05
0.475 0.025 -0.05
0.4875 0.025 -0.05
0.5 0.025 -0.05
0.5125 0.025 -0.05
0.525 0.025 -0.05
0.5375 0.025 -0.05
0.55 0.025 -0.05
0.5625 0.025 -0.05
0.575 0.025 -0.05
0.5875 0.025 -0.05
0.6 0.025 -0.05
0.0 0.0375 -0.05
0.0125 0.0375 -0.05
0.025 0.0375 -0.05
0.0375 0.0375 -0.05
0.05 0.0375 -0.05
0.0625 0.0375 -0.05
0.075 0.0375 -0.05
0.0875 0.0375 -0.05
0.1 0.0375 -0.05
0.1125 0.0375 -0.05
0.125 0.0375 -0.05
0.1375 0.0375 -0.05
0.15 0.0375 -0.05
0.1625 0.0375 -0.05
0.175 0.0375 -0.05
0.1875 0.0375 -0.05
0.2 0.0375 -0.05
0.2125 0.0375 -0.05
0.225 0.0375 -0.05
0.2375 0.0375 -0.05
0.25 0.0375 -0.05
0.2625 0.0375 -0.05
0.275 0.0375 -0.05
0.2875 0.0375 -0.05
0.3 0.0375 -0.05
0.3125 0.0375 -0.05
0.325 0.0375 -0.05
0.3375 0.0375 -0.05
0.35 0.0375 -0.05
0.3625 0.0375 -0.05
0.375 0.0375 -0.05
0.3875 0.0375 -0.05
0.4 0.0375 -0.05
0.4125 0.0375 -0.05
0.425 0.0375 -0.05
0.4375 0.0375 -0.05
0.45 0.0375 -0.05
0.4625 0.0375 -0.05
0.475 0.0375 -0.05
0.4875 0.0375 -0.05
0.5 0.0375 -0.05
0.5125 0.0375 -0.05
0.525 0.0375 -0.05
0.5375 0.0375 -0.05
0.55 0.0375 -0.05
0.5625 0.0375 -0.05
0.575 0.0375 -0.05
0.5875 0.0375 -0.05
0.6 0.0375 -0.05
0.0 0.05 -0.05
0.0125 0.05 -0.05
0.025 0.05 -0.05
0.0375 0.05 -0.05
0.05 0.05 -0.05
0.0625 0.05 -0.05
0.075 0.05 -0.05
0.0875 0.05 -0.05
0.1 0.05 -0.05
0.1125 0.05 -0.05
0.125 0.05 -0.05
0.1375 0.05 -0.05
0.15 0.05 -0.05
0.1625 0.05 -0.05
0.175 0.05 -0.05
0.1875 0.05 -0.05
0.2 0.05 -0.05
0.2125 0.05 -0.05
0.225 0.05 -0.05
0.2375 0.05 -0.05
0.25 0.05 -0.05
0.2625 0.05 -0.05
0.275 0.05 -0.05
0.2875 0.05 -0.05
0.3 0.05 -0.05
0.3125 0.05 -0.05
0.325 0.05 -0.05
0.3375 0.05 -0.05
0.35 0.05 -0.05
0.3625 0.05 -0.05
0.375 0.05 -0.05
0.3875 0.05 -0.05
0.4 0.05 -0.05
0.4125 0.05 -0.05
0.425 0.05 -0.05
0.4375 0.05 -0.05
0.45 0.05 -0.05
0.4625 0.05 -0.05
0.475 0.05 -0.05
0.4875 0.05 -0.05
0.5 0.05 -0.05
0.5125 0.05 -0.05
0.525 0.05 -0.05
0.5375 0.05 -0.05
0.55 0.05 -0.05
0.5625 0.05 -0.05
0.575 0.05 -0.05
0.5875 0.05 -0.05
0.6 0.05 -0.05
0.0 0.0625 -0.05
0.0125 0.0625 -0.05
0.025 0.0625 -0.05
0.0375 0.0625 -0.05
0.05 0.0625 -0.05
0.0625 0.0625 -0.05
0.075 0.0625 -0.05
0.0875 0.0625 -0.05
0.1 0.0625 -0.05
0.1125 0.0625 -0.05
0.125 0.0625 -0.05
0.1375 0.0625 -0.05
0.15 0.0625 -0.05
0.1625 0.0625 -0.05
0.175 0.0625 -0.05
0.1875 0.0625 -0.05
0.2 0.0625 -0.05
0.2125 0.0625 -0.05
0.225 0.0625 -0.05
0.2375 0.0625 -0.05
0.25 0.0625 -0.05
0.2625 0.0625 -0.05
0.275 0.0625 -0.05
0.2875 0.0625 -0.05
0.3 0.0625 -0.05
0.3125 0.0625 -0.05
0.325 0.0625 -0.05
0.3375 0.0625 -0.05
0.35 0.0625 -0.05
0.3625 0.0625 -0.05
0.375 0.0625 -0.05
0.3875 0.0625 -0.05
0.4 0.0625 -0.05
0.4125 0.0625 -0.05
0.425 0.0625 -0.05
0.4375 0.0625 -0.05
0.45 0.0625 -0.05
0.4625 0.0625 -0.05
0.475 0.0625 -0.05
0.4875 0.0625 -0.05
0.5 0.0625 -0.05
0.5125 0.0625 -0.05
0.525 0.0625 -0.05
0.5375 0.0625 -0.05
0.55 0.0625 -0.05
0.5625 0.0625 -0.05
0.575 0.0625 -0.05
0.5875 0.0625 -0.05
0.6 0.0625 -0.05
0.0 0.075 -0.05
0.0125 0.075 -0.05
0.025 0.075 -0.05
0.0375 0.075 -0.05
0.05 0.075 -0.05
0.0625 0.075 -0.05
0.075 0.075 -0.05
0.0875 0.075 -0.05
0.1 0.075 -0.05
0.1125 0.075 -0.05
0.125 0.075 -0.05
0.1375 0.075 -0.05
0.15 0.075 -0.05
0.1625 0.075 -0.05
0.175 0.075 -0.05
0.1875 0.075 -0.05
0.2 0.075 -0.05
0.2125 0.075 -0.05
0.225 0.075 -0.05
0.2375 0.075 -0.05
0.25 0.075 -0.05
0.2625 0.075 -0.05
0.275 0.075 -0.05
0.2875 0.075 -0.05
0.3 0.075 -0.05
0.3125 0.075 -0.05
0.325 0.075 -0.05
0.3375 0.075 -0.05
0.35 0.075 -0.05
0.3625 0.075 -0.05
0.375 0.075 -0.05
0.3875 0.075 -0.05
0.4 0.075 -0.05
0.4125 0.075 -0.05
0.425 0.075 -0.05
0.4375 0.075 -0.05
0.45 0.075 -0.05
0.4625 0.075 -0.05
0.475 0.075 -0.05
0.4875 0.075 -0.05
0.5 0.075 -0.05
0.5125 0.075 -0.05
0.525 0.075 -0.05
0.5375 0.075 -0.05
0.55 0.075 -0.05
0.5625 0.075 -0.05
0.575 0.075 -0.05
0.5875 0.075 -0.05
0.6 0.075 -0.05
0.0 0.0875 -0.05
0.0125 0.0875 -0.05
0.025 0.0875 -0.05
0.0375 0.0875 -0.05
0.05 0.0875 -0.05
0.0625 0.0875 -0.05
0.075 0.0875 -0.05
0.0875 0.0875 -0.05
0.1 0.0875 -0.05
0.1125 0.0875 -0.05
0.125 0.0875 -0.05
0.1375 0.0875 -0.05
0.15 0.0875 -0.05
0.1625 0.0875 -0.05
0.175 0.0875 -0.05
0.1875 0.0875 -0.05
0.2 0.0875 -0.05
0.2125 0.0875 -0.05
0.225 0.0875 -0.05
0.2375 0.0875 -0.05
0.25 0.0875 -0.05
0.2625 0.0875 -0.05
0.275 0.0875 -0.05
0.2875 0.0875 -0.05
0.3 0.0875 -0.05
0.3125 0.0875 -0.05
0.325 0.0875 -0.05
0.3375 0.0875 -0.05
0.35 0.0875 -0.05
0.3625 0.0875 -0.05
0.375 0.0875 -0.05
0.3875 0.0875 -0.05
0.4 0.0875 -0.05
0.4125 0.0875 -0.05
0.425 0.0875 -0.05
0.4375 0.0875 -0.05
0.45 0.0875 -0.05
0.4625 0.0875 -0.05
0.475 0.0875 -0.05
0.4875 0.0875 -0.05
0.5 0.0875 -0.05
0.5125 0.0875 -0.05
0.525 0.0875 -0.05
0.5375 0.0875 -0.05
0.55 0.0875 -0.05
0.5625 0.0875 -0.05
0.575 0.0875 -0.05
0.5875 0.0875 -0.05
0.6 0.0875 -0.05
0.0 0.1 -0.05
0.0125 0.1 -0.05
0.025 0.1 -0.05
0.0375 0.1 -0.05
0.05 0.1 -0.05
0.0625 0.1 -0.05
0.075 0.1 -0.05
0.0875 0.1 -0.05
0.1 0.1 -0.05
0.1125 0.1 -0.05
0.125 0.1 -0.05
0.1375 0.1 -0.05
0.15 0.1 -0.05
0.1625 0.1 -0.05
0.175 0.1 -0.05
0.1875 0.1 -0.05
0.2 0.1 -0.05
0.2125 0.1 -0.05
0.225 0.1 -0.05
0.2375 0.1 -0.05
0.25 0.1 -0.05
0.2625 0.1 -0.05
0.275 0.1 -0.05
0.2875 0.1 -0.05
0.3 0.1 -0.05
0.3125 0.1 -0.05
0.325 0.1 -0.05
0.3375 0.1 -0.05
0.35 0.1 -0.05
0.3625 0.1 -0.05
0.375 0.1 -0.05
0.3875 0.1 -0.05
0.4 0.1 -0.05
0.4125 0.1 -0.05
0.425 0.1 -0.05
0.4375 0.1 -0.05
0.45 0.1 -0.05
0.4625 0.1 -0.05
0.475 0.1 -0.05
0.4875 0.1 -0.05
0.5 0.1 -0.05
0.5125 0.1 -0.05
0.525 0.1 -0.05
0.5375 0.1 -0.05
0.55 0.1 -0.05
0.5625 0.1 -0.05
0.575 0.1 -0.05
0.5875 0.1 -0.05
0.6 0.1 -0.05
0.0 0.1125 -0.05
0.0125 0.1125 -0.05
0.025 0.1125 -0.05
0.0375 0.1125 -0.05
0.05 0.1125 -0.05
0.0625 0.1125 -0.05
0.075 0.1125 -0.05
0.0875 0.1125 -0.05
0.1 0.1125 -0.05
0.1125 0.1125 -0.05
0.125 0.1125 -0.05
0.1375 0.1125 -0.05
0.15 0.1125 -0.05
0.1625 0.1125 -0.05
0.175 0.1125 -0.05
0.1875 0.1125 -0.05
0.2 0.1125 -0.05
0.2125 0.1125 -0.05
0.225 0.1125 -0.05
0.2375 0.1125 -0.05
0.25 0.1125 -0.05
0.2625 0.1125 -0.05
0.275 0.1125 -0.05
0.2875 0.1125 -0.05
0.3 0.1125 -0.05
0.3125 0.1125 -0.05
0.325 0.1125 -0.05
0.3375 0.1125 -0.05
0.35 0.1125 -0.05
0.3625 0.1125 -0.05
0.375 0.1125 -0.05
0.3875 0.1125 -0.05
0.4 0.1125 -0.05
0.4125 0.1125 -0.05
0.425 0.1125 -0.05
0.4375 0.1125 -0.05
0.45 0.1125 -0.05
0.4625 0.1125 -0.05
0.475 0.1125 -0.05
0.4875 0.1125 -0.05
0.5 0.1125 -0.05
0.5125 0.1125 -0.05
0.525 0.1125 -0.05
0.5375 0.1125 -0.05
0.55 0.1125 -0.05
0.5625 0.1125 -0.05
0.575 0.1125 -0.05
0.5875 0.1125 -0.05
0.6 0.1125 -0.05
0.0 0.125 -0.05
0.0125 0.125 -0.05
0.025 0.125 -0.05
0.0375 0.125 -0.05
0.05 0.125 -0.05
0.0625 0.125 -0.05
0.075 0.125 -0.05
0.0875 0.125 -0.05
0.1 0.125 -0.05
0.1125 0.125 -0.05
0.125 0.125 -0.05
0.1375 0.125 -0.05
0.15 0.125 -0.05
0.1625 0.125 -0.05
0.175 0.125 -0.05
0.1875 0.125 -0.05
0.2 0.125 -0.05
0.2125 0.125 -0.05
0.225 0.125 -0.05
0.2375 0.125 -0.05
0.25 0.125 -0.05
0.2625 0.125 -0.05
0.275 0.125 -0.05
0.2875 0.125 -0.05
0.3 0.125 -0.05
0.3125 0.125 -0.05
0.325 0.125 -0.05
0.3375 0.125 -0.05
0.35 0.125 -0.05
0.3625 0.125 -0.05
0.375 0.125 -0.05
0.3875 0.125 -0.05
0.4 0.125 -0.05
0.4125 0.125 -0.05
0.425 0.125 -0.05
0.4375 0.125 -0.05
0.45 0.125 -0.05
0.4625 0.125 -0.05
0.475 0.125 -0.05
0.4875 0.125 -0.05
0.5 0.125 -0.05
0.5125 0.125 -0.05
0.525 0.125 -0.05
0.5375 0.125 -0.05
0.55 0.125 -0.05
0.5625 0.125 -0.05
0.575 0.125 -0.05
0.5875 0.125 -0.05
0.6 0.125 -0.05
0.0 0.1375 -0.05
0.0125 0.1375 -0.05
0.025 0.1375 -0.05
0.0375 0.1375 -0.05
0.05 0.1375 -0.05
0.0625 0.1375 -0.05
0.075 0.1375 -0.05
0.0875 0.1375 -0.05
[...]
CELL_DATA 16128
SCALARS P float 1
LOOKUP_TABLE default
100000.00000006007
99999.9999998355
100000.00000044532
99999.99999878898
100000.00000328726
99999.99999107113
100000.00002424141
99999.99993418704
100000.00017864024
99999.99951517233
100000.00131558675
99999.99643076358
100000.00968160707
99999.97374394505
100000.0711887096
99999.80703558281
100000.52288109917
99998.58375227613
100003.83302317146
99989.6554050024
100027.3896776757
99939.74079743947
99843.62313953307
122558.98474499982
271660.6059057328
568884.9888967604
856396.3813241487
998272.9054367442
1.0385753352926092e6
1.0535960905968312e6
1.0653722145932296e6
1.0765601654464782e6
1.0873221864361714e6
1.0976446525222203e6
1.1075143137323873e6
1.1169196031305077e6
1.1258458480634897e6
1.1342736526861289e6
1.1421753626300169e6
1.1495218186943626e6
1.1562619931115215e6
1.1623845023084339e6
1.167740407567008e6
1.172572417530991e6
1.1759575771002115e6
1.180434899673019e6
1.178264743881094e6
1.1922320509270832e6
100000.00000005943
99999.99999983741
100000.00000044052
99999.99999880222
100000.00000325224
99999.99999116396
100000.00002399663
99999.99993483146
100000.00017694963
99999.99951960055
100000.00130400166
99999.99646107356
100000.0096022109
99999.9739524589
100000.07063924945
99999.80848697145
100000.51905680471
99998.59367496235
100003.80839810052
99989.70984486624
100027.30113777406
99939.83462202197
99839.18642554682
122026.01407241664
270201.66827590734
568432.6810194469
859506.3385689631
1.004688715133691e6
1.0465645700099997e6
1.0622777571622976e6
1.0744374969208983e6
1.0858837307905266e6
1.0968565773948054e6
1.10737927833083e6
1.1174548610670767e6
1.127077472525611e6
1.1362327239610688e6
1.1448985152929872e6
1.1530425674378346e6
1.1606294925853682e6
1.167600697445914e6
1.1739354834516481e6
1.1794751050250963e6
1.184449896884755e6
1.1879272210162801e6
1.1924448999277223e6
1.1902012981937656e6
1.2043736768180507e6
100000.00000005781
99999.99999984223
100000.00000042835
99999.9999988346
100000.00000316653
99999.99999139115
100000.0000233981
99999.99993640302
100000.00017284023
99999.9995302897
100000.00127637267
99999.99653193411
100000.00942224357
99999.9744037489
100000.06952678386
99999.81116455741
100000.51283273149
99998.60738473461
100003.78078936946
99989.75659234809
100027.2431190364
99940.07843955191
99828.50929370358
120756.56386623086
265416.67714430176
561173.0294342565
853207.8910542254
1.000572282751692e6
1.0432661810871413e6
1.0589860902448318e6
1.07100901270899e6
1.0822982782672914e6
1.0931035117994286e6
1.1034468338886157e6
1.1133309570691215e6
1.1227509200738396e6
1.1316940479160408e6
1.140140511745717e6
1.148060907165557e6
1.1554230924038994e6
1.1621730574199015e6
1.1682937617606332e6
1.1736361861732912e6
1.1784277136206524e6
1.181768490048487e6
1.1861473528622189e6
1.1838356281220515e6
1.1981988446129696e6
100000.00000005517
99999.99999984933
100000.00000040923
99999.99999888559
100000.00000303004
99999.99999175429
100000.00002243288
99999.99993895988
100000.00016609077
99999.99954803576
100000.00122992795
99999.99665283626
100000.00910951437
99999.97520657683
100000.06748429447
99999.8163051859
100000.50005936445
99998.63864735434
100003.70557355246
99989.93403866312
100026.82609161136
99941.21004775846
99816.62937143444
118830.24203453086
257939.31784548043
550089.7505828356
844669.3998891583
996652.44125815
1.0413570683169723e6
1.0574740220235537e6
1.0695585881682504e6
1.0808474788089262e6
1.0916314298590028e6
1.1019439336866706e6
1.111794346973299e6
1.1211825076773888e6
1.1300994624720744e6
1.1385283510644138e6
1.1464422599484057e6
1.15381064977288e6
1.1605811499150917e6
1.1667350028133034e6
1.172126314050664e6
1.1769669275677002e6
1.1803798703136058e6
1.184788185952968e6
1.1824978923354584e6
1.197234748661499e6
100000.00000005143
99999.99999985906
100000.00000038272
99999.99999895718
100000.00000283802
99999.99999227039
100000.00002104892
99999.9999426648
100000.00015619291
99999.99957441687
100000.001159797
99999.99683872804
100000.00861838284
99999.97649946703
100000.06409444787
99999.82515373199
100000.477073963
99998.69803647588
100003.55302080356
99990.32270602914
100025.84938309404
99943.47597048561
99810.37337946467
116395.50721590301
247994.28488076245
535020.5064230018
832844.8766621969
991078.5373245986
1.0384854341328839e6
1.0550136419792215e6
1.0670475588374631e6
1.078221560575657e6
1.0888748699498477e6
1.0990476758152086e6
1.1087524377016157e6
1.117991716364704e6
1.1267591722950246e6
1.1350404506988116e6
1.1428111901754704e6
1.1500429325047056e6
1.156686123456868e6
1.1627217164349337e6
1.1680105365284658e6
1.1727507933029567e6
1.1760999012514271e6
1.1804145487757265e6
1.1780550200182016e6
1.193201672524994e6
100000.00000004677
99999.99999987152
100000.00000034852
99999.99999904957
100000.00000258739
99999.99999294996
100000.00001920921
99999.99994764087
100000.00014275074
99999.99961068941
100000.00106204473
99999.99710179461
100000.00791152036
99999.97839561719
100000.05901744105
99999.83871994594
100000.44090554515
99998.7942162638
100003.298034973
99990.99501159907
100024.10964769633
99947.27510852156
99814.80882760473
113639.1629194282
235893.66165434456
516048.3564268202
817590.0833774734
983881.7234117246
1.0349720636627028e6
1.052101140625431e6
1.0640845118361234e6
1.0751205484673902e6
1.0856188175104973e6
1.095628008400759e6
1.105164048790868e6
1.1142327547745649e6
1.122831075456432e6
1.1309478974289803e6
1.1385621619527438e6
1.1456481438652629e6
1.1521596686299872e6
1.1580774646396197e6
1.163269263987045e6
1.1679181321208482e6
1.17121644865116e6
1.1754531146866437e6
1.1730239116230204e6
1.188701242486706e6
100000.00000004137
99999.99999988657
100000.00000030723
99999.99999916226
100000.00000227983
99999.99999378987
100000.00001691784
99999.99995389124
100000.00012570765
99999.9996571438
100000.00093548579
99999.99744641151
100000.0069736824
99999.98094616925
100000.05208610171
99999.85754037806
100000.38985342174
99998.93253686013
100002.92384675235
99992.00349926206
100021.4450542523
99953.03934983352
99831.61826655755
110766.89996665753
222025.30679368094
493298.2895369875
798628.6532550859
974757.2219577923
1.0306594240368678e6
1.0486252198025256e6
1.0605494710815672e6
1.071403686456185e6
1.0816982863298499e6
1.0914927664505066e6
1.1008061162896657e6
1.109647060147862e6
1.1180157010243272e6
1.1259042153851788e6
1.1332950765281608e6
1.1401657105539993e6
1.1464740151257801e6
1.1522014729012246e6
1.1572243669680506e6
1.1617126483977581e6
1.1648974148671902e6
1.1690055914606e6
1.166453997296957e6
1.1827713112023966e6
100000.00000003523
99999.99999990384
100000.00000026035
99999.9999992917
100000.00000192442
99999.99999476566
100000.00001423854
99999.99996124966
100000.00010549679
99999.99971266082
100000.0007829743
99999.99786540295
100000.00582256156
99999.98410870484
100000.04339790717
99999.8814064016
100000.3243056428
99999.11251524636
100002.42994071316
99993.35553224162
100017.81471545162
99961.01947898003
99858.46162121785
107984.93757641233
206852.8149771523
466971.54717877484
775681.407998934
963379.514667335
1.0254371733103273e6
1.0445748407494412e6
1.0564559946423743e6
1.0670924613747569e6
1.077139357334618e6
1.0866714578616808e6
1.0957107497767298e6
1.104268570267681e6
1.112348026945522e6
1.119944615550244e6
1.1270445778630069e6
1.1336289999369064e6
1.1396606848528683e6
1.1451232208018794e6
1.149903223676106e6
1.1541604499416112e6
1.1571674519330133e6
1.1610973357614982e6
1.1583654323739596e6
1.1754666175908067e6
100000.00000002848
99999.99999992247
100000.00000020962
99999.99999943221
100000.00000153818
99999.99999583105
100000.00001129984
99999.99996936087
100000.00008310041
99999.99977452887
100000.00061198985
99999.99833817757
100000.00451471841
99999.98772829694
100000.03337573002
99999.90916882534
100000.24736846435
99999.32581046839
100001.8385275803
99994.99280811324
100013.36259811945
99971.07214173135
99889.75502182284
105479.20985758812
190911.02731068438
437366.65197102964
748470.0747511181
949347.7953974175
1.0191492165301986e6
1.0399181522868358e6
1.0517970590412852e6
1.0621813571777178e6
1.071933338647765e6
1.0811502911035696e6
1.089857202566694e6
1.098067360484375e6
1.1057862308450618e6
1.1130120870447427e6
1.1197345513387679e6
1.1259382410110903e6
1.1315910357782817e6
1.1366794586502064e6
1.1411016853401212e6
1.1450105935780087e6
1.1477234107930015e6
1.1513724968084078e6
1.1483505637545537e6
1.1663983271799283e6
100000.00000002174
99999.99999994102
100000.00000015805
99999.99999957501
100000.00000114417
99999.9999969209
100000.0000082854
99999.99997770572
100000.00005998505
99999.99983860806
100000.00043422024
99999.99883173281
100000.00314332727
99999.99154198017
100000.02276136432
99999.93873655167
100000.16493152708
99999.55585182617
100001.19615522286
99996.78510105782
100008.44192841124
99982.51242447861
99918.77577782293
103393.70818130425
174794.68169528
404906.385266256
716748.270462046
932183.9789766128
1.0115901976495613e6
1.0346171091023377e6
1.0465719957377765e6
1.0566741582383423e6
1.0660822192708382e6
1.074927470495633e6
1.0832381652036086e6
1.0910285059472083e6
1.0983051229398171e6
1.105067873379509e6
1.1113086672731428e6
1.1170148760592546e6
1.1221591855838962e6
1.1267319798319042e6
1.1306449971299772e6
1.1340499075438213e6
1.1363145424070943e6
1.139548959600169e6
1.1360972446312243e6
1.1553128915350058e6
100000.00000001548
99999.9999999591
100000.00000010873
99999.99999971071
100000.00000076872
99999.99999795946
100000.00000541077
99999.99998566942
100000.00003790429
99999.99989988726
100000.00026399801
99999.99930504903
100000.00182587121
99999.99521304325
100000.01252043323
99999.96733881345
100000.08494909831
99999.77979518565
100000.56843237494
99998.54425428093
100003.58159485635
99994.1129881958
99940.32917163504
101811.61603183161
159136.05598102376
370162.929644153
680342.7018690245
911330.5126194136
1.0024844670632652e6
1.0286173344700139e6
1.0407813371694392e6
1.0505791044160437e6
1.059592826661916e6
1.0680059032640352e6
1.075850639661798e6
1.0831406098673132e6
1.089881558403912e6
1.0960725260774149e6
1.101704930246891e6
1.1067657333432015e6
1.1112287313961245e6
1.1150841776825383e6
1.1182525715649973e6
1.1208817294167073e6
1.122387706439666e6
1.124879977408151e6
1.1206410148643802e6
1.1412006123515216e6
100000.0000000097
99999.99999997496
100000.00000006527
99999.99999983069
100000.00000043765
99999.99999887325
100000.00000288709
99999.99999264638
100000.00001859959
99999.99995335305
100000.00011577293
99999.99971641802
100000.00068290257
99999.9983925694
100000.00366419113
99999.99204077404
100000.01594981145
99999.97282452129
100000.02764083173
100000.05970575834
99999.38758091137
100004.30893907326
99952.78818527595
100744.2845274573
144568.36182345552
333876.24771636294
639206.4285265967
886159.6798235378
991463.5995919725
1.021837909144878e6
1.0344253684499162e6
1.0439102578837184e6
1.0524794858969196e6
1.0603970210843564e6
1.0677011382167998e6
1.0744027708165403e6
1.0805038450060855e6
1.0859990230220065e6
1.0908750905289655e6
1.095114138294586e6
1.0986868261953243e6
1.1015806149677595e6
1.1037247117588494e6
1.1052729626879129e6
1.1057048435980547e6
1.1071701368225473e6
1.1018582786037917e6
1.1241847586447624e6
100000.00000000503
99999.99999998804
100000.0000000299
99999.99999992776
100000.00000017165
99999.99999960372
100000.00000088192
99999.99999815413
100000.00000346208
99999.9999949871
100000.00000117587
100000.00003210778
99999.99981245087
100000.0007950744
99999.99702580934
100000.01040558073
99999.96507664668
100000.11395556673
99999.6355573079
100001.14928538993
99996.39480192318
100011.59459747728
99958.44702960679
100133.15031451352
131672.968861445
296959.4843004883
593482.0941898051
855999.0465228915
978041.69564152
1.0141564021197374e6
1.0275005427486544e6
1.0366874086064508e6
1.0447650126912082e6
1.0521224559976633e6
1.0588080530285838e6
1.0648275947205059e6
1.070174922860395e6
1.0748344745629583e6
1.0787803299963085e6
1.081978292512721e6
1.0843791224883008e6
1.0859417634373351e6
1.0865674301142823e6
1.08635733377268e6
1.0847710024549405e6
1.0839590732060703e6
1.075974996074161e6
1.0994954439514964e6
100000.00000000128
99999.99999999785
100000.00000000389
99999.99999999825
99999.99999998127
100000.00000011886
99999.99999948702
100000.00000192976
99999.99999324676
100000.00002261616
99999.9999264816
100000.00023394989
99999.99926729198
100000.00226674501
99999.9930551423
100000.02111272769
99999.93622065727
100000.19167712102
99999.42637949315
100001.7109459207
99994.91043457345
100015.0022754363
99961.91485566137
99867.36753184699
120912.34221789314
260484.3109744849
543570.3286470143
820179.4089617162
961591.6659911127
1.0053881992937038e6
1.0199938086478995e6
1.0289355132354842e6
1.0364817181673504e6
1.0432160532753418e6
1.049205037709946e6
1.0544468931615418e6
1.0589223757864034e6
1.062598850469492e6
1.0654287650853323e6
1.0673506116303594e6
1.0682844789644717e6
1.0681529803582004e6
1.0668269498709359e6
1.0643978160163679e6
1.0603882634692015e6
1.0570744083478001e6
1.0464695706343377e6
1.0728194121253912e6
99999.99999999913
100000.00000000381
99999.99999998775
100000.00000004121
99999.99999986758
100000.0000004181
99999.9999987028
100000.0000039771
99999.99998792855
100000.0000363462
99999.99989128902
100000.00032335313
99999.99904269182
100000.00282298058
99999.99170332709
100000.02431409704
99999.92891826032
100000.20738053761
99999.39600773396
100001.75645448639
99994.90598194906
100014.4824411219
99967.49066523866
99814.64192955453
112558.13438563944
225638.9827075184
490194.46766991826
778110.7687868449
941327.7954405351
995258.4202911251
1.0118734651498712e6
1.020682965691814e6
1.02767174491898e6
1.0337250374134429e6
1.0389428316229586e6
1.0433139200979207e6
1.0467997856335421e6
1.0493409067428242e6
1.0508522783819262e6
1.0512194004018032e6
1.050281822670758e6
1.0478418389872309e6
1.0435737034937154e6
1.0372244906184522e6
1.0277671951105829e6
1.0165954117768514e6
994287.7186860024
1.0122420502905406e6
99999.99999999785
100000.0000000067
99999.99999997977
100000.00000006048
99999.99999982055
100000.00000053034
99999.99999844331
100000.00000455133
99999.99998675135
100000.00003842535
99999.99988891812
100000.00032017767
99999.99907957864
100000.00263957476
99999.99244693884
100000.02156904008
99999.93852135213
100000.17492869956
99999.5030815158
100001.40912500845
99996.01911043297
100010.96294285533
99976.94754868785
99856.18873329513
106634.0023524383
193652.74174364118
434448.6458287515
729389.1669067325
916303.2083971268
983365.1218833423
1.0030747492893601e6
1.0119580605004621e6
1.0183866793708045e6
1.0237108908944099e6
1.0280916772422333e6
1.0315090074201854e6
1.0338998865746191e6
1.0351697188175427e6
1.035183986415444e6
1.0337600882802397e6
1.0306462535248452e6
1.0255207497618446e6
1.0179152788381833e6
1.0074468364624889e6
993120.4728475097
976652.3742760341
948936.0932179199
971974.5819440092
99999.99999999741
100000.0000000075
99999.9999999787
100000.00000006173
99999.99999982343
100000.00000050507
99999.99999856249
100000.00000408047
99999.99998845633
100000.00003255655
99999.99990845834
100000.00025661486
99999.99928283892
100000.00199796705
99999.99445193462
100000.01535311145
99999.95767034947
100000.1162365524
99999.68224305952
100000.86403570767
99997.67109294489
100006.04970485413
99988.82205379043
99912.56340374451
102899.37630752564
165681.6330385286
377813.2400649486
673932.4254309624
885435.4573871731
969134.279251586
993477.8439524838
1.0027825287791005e6
1.0086856233425004e6
1.0132484175429076e6
1.0167403385106766e6
1.0191375357882374e6
1.0203485713941439e6
1.0202345341666947e6
1.0185959046888509e6
1.0151513962778798e6
1.0094846479413598e6
1.0009823364606072e6
988613.5952040905
970799.6904352658
943853.8958960325
902885.9666038648
824425.6044678367
696239.7096542034
99999.99999999772
100000.00000000653
99999.99999998166
100000.00000005162
99999.99999985611
100000.00000040019
99999.99999889257
100000.00000305232
99999.99999162299
100000.00002288308
99999.99993780885
100000.00016806342
99999.99954874748
100000.00120262902
99999.99682290755
100000.00830475615
99999.97857457584
100000.05435807702
99999.8651188548
100000.32433486257
99999.25953953248
100001.4632831667
99999.76396749122
99950.03687173575
100895.50864368635
142654.51114118868
322119.54198111093
612134.5070266933
847578.1206521508
951771.1831941049
982875.9046256003
993160.9840674684
998631.5824449852
1.0024237519759681e6
1.0049946856989304e6
1.0063301649441139e6
1.0063109220681131e6
1.0047510177157364e6
1.0013863400274541e6
995833.5509635815
987519.5554831639
975580.2677675228
958582.1015251296
934304.0082618456
898209.1210569949
844375.931174708
753385.615751711
617158.9019862617
99999.99999999811
100000.00000000503
99999.99999998641
100000.00000003693
99999.99999989987
100000.00000026853
99999.9999992827
100000.00000190086
99999.99999500629
100000.00001298002
99999.99996668704
100000.00008412694
99999.99979196402
100000.00049990276
99999.99884773797
100000.00248582082
99999.99525381357
100000.00667168778
100000.0011014066
99999.93767793047
100000.3537328216
99998.43467885104
100006.7202487571
99967.81665465783
100054.58771846096
125092.60381207496
269445.78555843624
545014.7343905146
801657.1140167377
930219.3723786443
970930.7975018027
983064.4774479837
988285.3044078763
991330.154789533
992972.488135574
993234.9848656167
991975.7282012558
988972.0816438303
983903.287905684
976309.5755093063
965513.240142449
950514.7822360732
929733.5680010255
900849.7429566791
859631.2636004947
801154.5289364517
712384.1699537738
591839.7323558119
99999.99999999863
100000.00000000301
99999.99999999137
100000.00000002231
99999.99999994172
100000.00000014874
99999.99999962527
100000.00000092517
99999.99999777228
100000.00000517168
99999.99998863354
100000.00002272926
99999.99996287104
100000.00002678331
100000.00014937737
99999.99893014693
100000.00488609326
99999.98083840712
100000.06953056139
99999.75930870276
100000.80773470517
99997.34282402879
100008.5920802586
99977.22482041041
99840.84581766231
112950.3301795114
221932.56647291704
474321.7250072886
746881.7799377504
903145.8222499322
957114.6256746205
972405.5129786164
977695.7535957309
980061.7948025161
980795.9681519811
980004.6777187132
977539.2754555369
973151.283349014
966484.2042482346
957035.7744131873
944086.716857495
926614.3088341192
903088.5823201034
871406.4525760075
828101.4738786423
769626.302393225
688006.1865212317
584823.1463221529
99999.9999999992
100000.00000000172
99999.99999999546
100000.0000000108
99999.99999997328
100000.00000006061
99999.99999986739
100000.00000026352
99999.99999956682
100000.00000034539
100000.00000148284
99999.9999889365
100000.00005039276
99999.99980455278
100000.0006987285
99999.99762340907
100000.00781320663
99999.97494878863
100000.07876797981
99999.75624586285
100000.74419354809
99997.75732914597
100006.53896894514
99986.38341791883
99865.99696807055
105563.24967785696
181517.9967445592
402543.2051861023
683022.722439866
868980.3350161359
940637.4287038242
961000.7183066175
966885.9433654578
968706.1463884646
968584.1518841065
966786.8269605738
963185.1452745555
957518.8958764812
949417.8227590361
938371.4360380536
923672.7020320364
904356.7725115713
879059.595170735
846025.9616040845
802627.250273388
746499.8600556846
673076.7919578142
584732.3768367325
99999.99999999958
100000.00000000058
99999.99999999817
100000.00000000346
99999.99999999312
100000.00000000851
100000.00000000287
99999.9999999171
100000.00000043427
99999.99999823175
100000.00000643218
99999.99997804448
100000.0000718415
99999.99977202869
100000.00070620295
99999.99785582592
100000.00639571613
99999.98123560731
100000.05416327204
99999.84628568022
100000.42809371867
99998.83707503157
100002.95530467007
99995.92563522393
99927.42434595029
101780.24725742711
149606.4713692417
332778.28818238236
610723.7252120193
826048.6311575038
920369.8194772102
948517.0566098891
955831.9987705402
957334.5939744047
956444.8051241719
953716.0167760452
949073.9908174279
942266.2239748783