# vtk DataFile Version 2.0
JuliaCFD
ASCII
DATASET UNSTRUCTURED_GRID

POINTS 32898 float
0.0 0.0 -0.05
0.0125 0.0 -0.05
0.025 0.0 -0.05
0.0375 0.0 -0.05
0.05 0.0 -0.05
0.0625 0.0 -0.05
0.075 0.0 -0.05
0.0875 0.0 -0.05
0.1 0.0 -0.05
0.1125 0.0 -0.05
0.125 0.0 -0.05
0.1375 0.0 -0.05
0.15 0.0 -0.05
0.1625 0.0 -0.05
0.175 0.0 -0.05
0.1875 0.0 -0.05
0.2 0.0 -0.05
0.2125 0.0 -0.05
0.225 0.0 -0.05
0.2375 0.0 -0.05
0.25 0.0 -0.05
0.2625 0.0 -0.05
0.275 0.0 -0.05
0.2875 0.0 -0.05
0.3 0.0 -0.05
0.3125 0.0 -0.05
0.325 0.0 -0.05
0.3375 0.0 -0.05
0.35 0.0 -0.05
0.3625 0.0 -0.05
0.375 0.0 -0.05
0.3875 0.0 -0.05
0.4 0.0 -0.05
0.4125 0.0 -0.05
0.425 0.0 -0.05
0.4375 0.0 -0.05
0.45 0.0 -0.05
0.4625 0.0 -0.05
0.475 0.0 -0.05
0.4875 0.0 -0.05
0.5 0.0 -0.05
0.5125 0.0 -0.05
0.525 0.0 -0.05
0.5375 0.0 -0.05
0.55 0.0 -0.05
0.5625 0.0 -0.05
0.575 0.0 -0.05
0.5875 0.0 -0.05
0.6 0.0 -0.05
0.0 0.0125 -0.05
0.0125 0.0125 -0.05
0.025 0.0125 -0.05
0.0375 0.0125 -0.05
0.05 0.0125 -0.05
0.0625 0.0125 -0.05
0.075 0.0125 -0.05
0.0875 0.0125 -0.05
0.1 0.0125 -0.05
0.1125 0.0125 -0.05
0.125 0.0125 -0.05
0.1375 0.0125 -0.05
0.15 0.0125 -0.05
0.1625 0.0125 -0.05
0.175 0.0125 -0.05
0.1875 0.0125 -0.05
0.2 0.0125 -0.05
0.2125 0.0125 -0.05
0.225 0.0125 -0.05
0.2375 0.0125 -0.05
0.25 0.0125 -0.05
0.2625 0.0125 -0.05
0.275 0.0125 -0.05
0.2875 0.0125 -0.05
0.3 0.0125 -0.05
0.3125 0.0125 -0.05
0.325 0.0125 -0.05
0.3375 0.0125 -0.05
0.35 0.0125 -0.05
0.3625 0.0125 -0.05
0.375 0.0125 -0.05
0.3875 0.0125 -0.05
0.4 0.0125 -0.05
0.4125 0.0125 -0.05
0.425 0.0125 -0.05
0.4375 0.0125 -0.05
0.45 0.0125 -0.05
0.4625 0.0125 -0.05
0.475 0.0125 -0.05
0.4875 0.0125 -0.05
0.5 0.0125 -0.05
0.5125 0.0125 -0.05
0.525 0.0125 -0.05
0.5375 0.0125 -0.05
0.55 0.0125 -0.05
0.5625 0.0125 -0.05
0.575 0.0125 -0.05
0.5875 0.0125 -0.05
0.6 0.0125 -0.05
0.0 0.025 -0.05
0.0125 0.025 -0.05
0.025 0.025 -0.05
0.0375 0.025 -0.05
0.05 0.025 -0.05
0.0625 0.025 -0.05
0.075 0.025 -0.05
0.0875 0.025 -0.05
0.1 0.025 -0.05
0.1125 0.025 -0.05
0.125 0.025 -0.05
0.1375 0.025 -0.05
0.15 0.025 -0.05
0.1625 0.025 -0.05
0.175 0.025 -0.05
0.1875 0.025 -0.05
0.2 0.025 -0.05
0.2125 0.025 -0.05
0.225 0.025 -0.05
0.2375 0.025 -0.05
0.25 0.025 -0.05
0.2625 0.025 -0.05
0.275 0.025 -0.05
0.2875 0.025 -0.05
0.3 0.025 -0.05
0.3125 0.025 -0.05
0.325 0.025 -0.05
0.3375 0.025 -0.05
0.35 0.025 -0.05
0.3625 0.025 -0.05
0.375 0.025 -0.05
0.3875 0.025 -0.05
0.4 0.025 -0.05
0.4125 0.025 -0.05
0.425 0.025 -0.05
0.4375 0.025 -0.05
0.45 0.025 -0.05
0.4625 0.025 -0.05
0.475 0.025 -0.05
0.4875 0.025 -0.05
0.5 0.025 -0.05
0.5125 0.025 -0.05
0.525 0.025 -0.05
0.5375 0.025 -0.05
0.55 0.025 -0.05
0.5625 0.025 -0.05
0.575 0.025 -0.05
0.5875 0.025 -0.05
0.6 0.025 -0.05
0.0 0.0375 -0.05
0.0125 0.0375 -0.05
0.025 0.0375 -0.05
0.0375 0.0375 -0.05
0.05 0.0375 -0.05
0.0625 0.0375 -0.05
0.075 0.0375 -0.05
0.0875 0.0375 -0.05
0.1 0.0375 -0.05
0.1125 0.0375 -0.05
0.125 0.0375 -0.05
0.1375 0.0375 -0.05
0.15 0.0375 -0.05
0.1625 0.0375 -0.05
0.175 0.0375 -0.05
0.1875 0.0375 -0.05
0.2 0.0375 -0.05
0.2125 0.0375 -0.05
0.225 0.0375 -0.05
0.2375 0.0375 -0.05
0.25 0.0375 -0.05
0.2625 0.0375 -0.05
0.275 0.0375 -0.05
0.2875 0.0375 -0.05
0.3 0.0375 -0.05
0.3125 0.0375 -0.05
0.325 0.0375 -0.05
0.3375 0.0375 -0.05
0.35 0.0375 -0.05
0.3625 0.0375 -0.05
0.375 0.0375 -0.05
0.3875 0.0375 -0.05
0.4 0.0375 -0.05
0.4125 0.0375 -0.05
0.425 0.0375 -0.05
0.4375 0.0375 -0.05
0.45 0.0375 -0.05
0.4625 0.0375 -0.05
0.475 0.0375 -0.05
0.4875 0.0375 -0.05
0.5 0.0375 -0.05
0.5125 0.0375 -0.05
0.525 0.0375 -0.05
0.5375 0.0375 -0.05
0.55 0.0375 -0.05
0.5625 0.0375 -0.05
0.575 0.0375 -0.05
0.5875 0.0375 -0.05
0.6 0.0375 -0.05
0.0 0.05 -0.05
0.0125 0.05 -0.05
0.025 0.05 -0.05
0.0375 0.05 -0.05
0.05 0.05 -0.05
0.0625 0.05 -0.05
0.075 0.05 -0.05
0.0875 0.05 -0.05
0.1 0.05 -0.05
0.1125 0.05 -0.05
0.125 0.05 -0.05
0.1375 0.05 -0.05
0.15 0.05 -0.05
0.1625 0.05 -0.05
0.175 0.05 -0.05
0.1875 0.05 -0.05
0.2 0.05 -0.05
0.2125 0.05 -0.05
0.225 0.05 -0.05
0.2375 0.05 -0.05
0.25 0.05 -0.05
0.2625 0.05 -0.05
0.275 0.05 -0.05
0.2875 0.05 -0.05
0.3 0.05 -0.05
0.3125 0.05 -0.05
0.325 0.05 -0.05
0.3375 0.05 -0.05
0.35 0.05 -0.05
0.3625 0.05 -0.05
0.375 0.05 -0.05
0.3875 0.05 -0.05
0.4 0.05 -0.05
0.4125 0.05 -0.05
0.425 0.05 -0.05
0.4375 0.05 -0.05
0.45 0.05 -0.05
0.4625 0.05 -0.05
0.475 0.05 -0.05
0.4875 0.05 -0.05
0.5 0.05 -0.05
0.5125 0.05 -0.05
0.525 0.05 -0.05
0.5375 0.05 -0.05
0.55 0.05 -0.05
0.5625 0.05 -0.05
0.575 0.05 -0.05
0.5875 0.05 -0.05
0.6 0.05 -0.05
0.0 0.0625 -0.05
0.0125 0.0625 -0.05
0.025 0.0625 -0.05
0.0375 0.0625 -0.05
0.05 0.0625 -0.05
0.0625 0.0625 -0.05
0.075 0.0625 -0.05
0.0875 0.0625 -0.05
0.1 0.0625 -0.05
0.1125 0.0625 -0.05
0.125 0.0625 -0.05
0.1375 0.0625 -0.05
0.15 0.0625 -0.05
0.1625 0.0625 -0.05
0.175 0.0625 -0.05
0.1875 0.0625 -0.05
0.2 0.0625 -0.05
0.2125 0.0625 -0.05
0.225 0.0625 -0.05
0.2375 0.0625 -0.05
0.25 0.0625 -0.05
0.2625 0.0625 -0.05
0.275 0.0625 -0.05
0.2875 0.0625 -0.05
0.3 0.0625 -0.05
0.3125 0.0625 -0.05
0.325 0.0625 -0.05
0.3375 0.0625 -0.05
0.35 0.0625 -0.05
0.3625 0.0625 -0.05
0.375 0.0625 -0.05
0.3875 0.0625 -0.05
0.4 0.0625 -0.05
0.4125 0.0625 -0.05
0.425 0.0625 -0.05
0.4375 0.0625 -0.05
0.45 0.0625 -0.05
0.4625 0.0625 -0.05
0.475 0.0625 -0.05
0.4875 0.0625 -0.05
0.5 0.0625 -0.05
0.5125 0.0625 -0.05
0.525 0.0625 -0.05
0.5375 0.0625 -0.05
0.55 0.0625 -0.05
0.5625 0.0625 -0.05
0.575 0.0625 -0.05
0.5875 0.0625 -0.05
0.6 0.0625 -0.05
0.0 0.075 -0.05
0.0125 0.075 -0.05
0.025 0.075 -0.05
0.0375 0.075 -0.05
0.05 0.075 -0.05
0.0625 0.075 -0.05
0.075 0.075 -0.05
0.0875 0.075 -0.05
0.1 0.075 -0.05
0.1125 0.075 -0.05
0.125 0.075 -0.05
0.1375 0.075 -0.05
0.15 0.075 -0.05
0.1625 0.075 -0.05
0.175 0.075 -0.05
0.1875 0.075 -0.05
0.2 0.075 -0.05
0.2125 0.075 -0.05
0.225 0.075 -0.05
0.2375 0.075 -0.05
0.25 0.075 -0.05
0.2625 0.075 -0.05
0.275 0.075 -0.05
0.2875 0.075 -0.05
0.3 0.075 -0.05
0.3125 0.075 -0.05
0.325 0.075 -0.05
0.3375 0.075 -0.05
0.35 0.075 -0.05
0.3625 0.075 -0.05
0.375 0.075 -0.05
0.3875 0.075 -0.05
0.4 0.075 -0.05
0.4125 0.075 -0.05
0.425 0.075 -0.05
0.4375 0.075 -0.05
0.45 0.075 -0.05
0.4625 0.075 -0.05
0.475 0.075 -0.05
0.4875 0.075 -0.05
0.5 0.075 -0.05
0.5125 0.075 -0.05
0.525 0.075 -0.05
0.5375 0.075 -0.05
0.55 0.075 -0.05
0.5625 0.075 -0.05
0.575 0.075 -0.05
0.5875 0.075 -0.05
0.6 0.075 -0.05
0.0 0.0875 -0.05
0.0125 0.0875 -0.05
0.025 0.0875 -0.05
0.0375 0.0875 -0.05
0.05 0.0875 -0.05
0.0625 0.0875 -0.05
0.075 0.0875 -0.05
0.0875 0.0875 -0.05
0.1 0.0875 -0.05
0.1125 0.0875 -0.05
0.125 0.0875 -0.05
0.1375 0.0875 -0.05
0.15 0.0875 -0.05
0.1625 0.0875 -0.05
0.175 0.0875 -0.05
0.1875 0.0875 -0.05
0.2 0.0875 -0.05
0.2125 0.0875 -0.05
0.225 0.0875 -0.05
0.2375 0.0875 -0.05
0.25 0.0875 -0.05
0.2625 0.0875 -0.05
0.275 0.0875 -0.05
0.2875 0.0875 -0.05
0.3 0.0875 -0.05
0.3125 0.0875 -0.05
0.325 0.0875 -0.05
0.3375 0.0875 -0.05
0.35 0.0875 -0.05
0.3625 0.0875 -0.05
0.375 0.0875 -0.05
0.3875 0.0875 -0.05
0.4 0.0875 -0.05
0.4125 0.0875 -0.05
0.425 0.0875 -0.05
0.4375 0.0875 -0.05
0.45 0.0875 -0.05
0.4625 0.0875 -0.05
0.475 0.0875 -0.05
0.4875 0.0875 -0.05
0.5 0.0875 -0.05
0.5125 0.0875 -0.05
0.525 0.0875 -0.05
0.5375 0.0875 -0.05
0.55 0.0875 -0.05
0.5625 0.0875 -0.05
0.575 0.0875 -0.05
0.5875 0.0875 -0.05
0.6 0.0875 -0.05
0.0 0.1 -0.05
0.0125 0.1 -0.05
0.025 0.1 -0.05
0.0375 0.1 -0.05
0.05 0.1 -0.05
0.0625 0.1 -0.05
0.075 0.1 -0.05
0.0875 0.1 -0.05
0.1 0.1 -0.05
0.1125 0.1 -0.05
0.125 0.1 -0.05
0.1375 0.1 -0.05
0.15 0.1 -0.05
0.1625 0.1 -0.05
0.175 0.1 -0.05
0.1875 0.1 -0.05
0.2 0.1 -0.05
0.2125 0.1 -0.05
0.225 0.1 -0.05
0.2375 0.1 -0.05
0.25 0.1 -0.05
0.2625 0.1 -0.05
0.275 0.1 -0.05
0.2875 0.1 -0.05
0.3 0.1 -0.05
0.3125 0.1 -0.05
0.325 0.1 -0.05
0.3375 0.1 -0.05
0.35 0.1 -0.05
0.3625 0.1 -0.05
0.375 0.1 -0.05
0.3875 0.1 -0.05
0.4 0.1 -0.05
0.4125 0.1 -0.05
0.425 0.1 -0.05
0.4375 0.1 -0.05
0.45 0.1 -0.05
0.4625 0.1 -0.05
0.475 0.1 -0.05
0.4875 0.1 -0.05
0.5 0.1 -0.05
0.5125 0.1 -0.05
0.525 0.1 -0.05
0.5375 0.1 -0.05
0.55 0.1 -0.05
0.5625 0.1 -0.05
0.575 0.1 -0.05
0.5875 0.1 -0.05
0.6 0.1 -0.05
0.0 0.1125 -0.05
0.0125 0.1125 -0.05
0.025 0.1125 -0.05
0.0375 0.1125 -0.05
0.05 0.1125 -0.05
0.0625 0.1125 -0.05
0.075 0.1125 -0.05
0.0875 0.1125 -0.05
0.1 0.1125 -0.05
0.1125 0.1125 -0.05
0.125 0.1125 -0.05
0.1375 0.1125 -0.05
0.15 0.1125 -0.05
0.1625 0.1125 -0.05
0.175 0.1125 -0.05
0.1875 0.1125 -0.05
0.2 0.1125 -0.05
0.2125 0.1125 -0.05
0.225 0.1125 -0.05
0.2375 0.1125 -0.05
0.25 0.1125 -0.05
0.2625 0.1125 -0.05
0.275 0.1125 -0.05
0.2875 0.1125 -0.05
0.3 0.1125 -0.05
0.3125 0.1125 -0.05
0.325 0.1125 -0.05
0.3375 0.1125 -0.05
0.35 0.1125 -0.05
0.3625 0.1125 -0.05
0.375 0.1125 -0.05
0.3875 0.1125 -0.05
0.4 0.1125 -0.05
0.4125 0.1125 -0.05
0.425 0.1125 -0.05
0.4375 0.1125 -0.05
0.45 0.1125 -0.05
0.4625 0.1125 -0.05
0.475 0.1125 -0.05
0.4875 0.1125 -0.05
0.5 0.1125 -0.05
0.5125 0.1125 -0.05
0.525 0.1125 -0.05
0.5375 0.1125 -0.05
0.55 0.1125 -0.05
0.5625 0.1125 -0.05
0.575 0.1125 -0.05
0.5875 0.1125 -0.05
0.6 0.1125 -0.05
0.0 0.125 -0.05
0.0125 0.125 -0.05
0.025 0.125 -0.05
0.0375 0.125 -0.05
0.05 0.125 -0.05
0.0625 0.125 -0.05
0.075 0.125 -0.05
0.0875 0.125 -0.05
0.1 0.125 -0.05
0.1125 0.125 -0.05
0.125 0.125 -0.05
0.1375 0.125 -0.05
0.15 0.125 -0.05
0.1625 0.125 -0.05
0.175 0.125 -0.05
0.1875 0.125 -0.05
0.2 0.125 -0.05
0.2125 0.125 -0.05
0.225 0.125 -0.05
0.2375 0.125 -0.05
0.25 0.125 -0.05
0.2625 0.125 -0.05
0.275 0.125 -0.05
0.2875 0.125 -0.05
0.3 0.125 -0.05
0.3125 0.125 -0.05
0.325 0.125 -0.05
0.3375 0.125 -0.05
0.35 0.125 -0.05
0.3625 0.125 -0.05
0.375 0.125 -0.05
0.3875 0.125 -0.05
0.4 0.125 -0.05
0.4125 0.125 -0.05
0.425 0.125 -0.05
0.4375 0.125 -0.05
0.45 0.125 -0.05
0.4625 0.125 -0.05
0.475 0.125 -0.05
0.4875 0.125 -0.05
0.5 0.125 -0.05
0.5125 0.125 -0.05
0.525 0.125 -0.05
0.5375 0.125 -0.05
0.55 0.125 -0.05
0.5625 0.125 -0.05
0.575 0.125 -0.05
0.5875 0.125 -0.05
0.6 0.125 -0.05
0.0 0.1375 -0.05
0.0125 0.1375 -0.05
0.025 0.1375 -0.05
0.0375 0.1375 -0.05
0.05 0.1375 -0.05
0.0625 0.1375 -0.05
0.075 0.1375 -0.05
0.0875 0.1375 -0.05
[...]
CELL_DATA 16128
SCALARS P float 1
LOOKUP_TABLE default
100000.0000003386
100000.0000010339
100000.00000317591
100000.00000977558
100000.00003010768
100000.00009274553
100000.0002857115
100000.0008801647
100000.00271142824
100000.00835277955
100000.02573147949
100000.07926869753
100000.2441991268
100000.75230405868
100002.31765801791
100007.14014590466
100021.99626137994
100067.75162459226
100208.5717826385
100641.0304163182
101960.90733592174
105923.14287600946
117337.81274859469
147266.52247813623
213302.38856121374
329038.1746434604
488089.70980116364
660840.4242491316
811072.4349506517
918446.7804851687
984931.9153763517
1.0237201254675235e6
1.0473410794610614e6
1.063625979717796e6
1.076523369731372e6
1.0877752947235384e6
1.098073635763467e6
1.1076613564640859e6
1.116603501064612e6
1.124897919281545e6
1.132516984261057e6
1.1394224304527177e6
1.1455708087905762e6
1.1509160670864482e6
1.155411250978301e6
1.1590130976213852e6
1.1619201050848288e6
1.1838256303044122e6
100000.00000033634
100000.00000102683
100000.00000315417
100000.0000097075
100000.00002989484
100000.00009207836
100000.0002836206
100000.00087361055
100000.00269087983
100000.00828834919
100000.02552944222
100000.07863516574
100000.24221276763
100000.7460777124
100002.29815106378
100007.07908645227
100021.80544188619
100067.15699925118
100206.72882733168
100635.37962227395
101943.96821503062
105874.78905751153
117213.96398559329
147017.81986783943
213023.3702195408
329242.6602949841
489785.67651924776
665108.4446085879
818414.1729789831
928570.9559193532
997128.8392131305
1.0373128725251993e6
1.0618691102970194e6
1.0788292322282337e6
1.092272750187122e6
1.1040142002031826e6
1.114780723767526e6
1.1248290011166492e6
1.1342254406070597e6
1.1429617593348753e6
1.1509992108322994e6
1.1582849447251814e6
1.1647589168625819e6
1.170358607338923e6
1.1750243276420818e6
1.1787112858416757e6
1.1817021146686631e6
1.204047038885687e6
100000.00000033125
100000.00000101111
100000.00000310523
100000.00000955441
100000.00002941552
100000.00009057717
100000.00027891582
100000.00085886319
100000.00264464706
100000.00814339203
100000.0250749034
100000.07720980796
100000.23774315354
100000.73206354564
100002.25422182979
100006.94144987503
100021.3745652696
100065.81010495822
100202.5300976698
100622.36420923681
101904.11977720649
105756.17043797702
116882.60181296422
146207.88658058856
211430.30243820997
326825.694460643
486971.53247156995
662613.5947383139
816799.565829053
927953.8073764984
997285.803253799
1.03793851159582e6
1.062722312929527e6
1.0797551049604078e6
1.0931793927179677e6
1.104847631414259e6
1.1155078856625177e6
1.1254278735815983e6
1.1346797607337963e6
1.143258462316737e6
1.1511274811688303e6
1.1582363081303735e6
1.1645280944653158e6
1.1699448990217524e6
1.1744331452536127e6
1.1779594052781425e6
1.1809568057564583e6
1.2035453150564595e6
100000.00000032347
100000.00000098757
100000.00000303198
100000.00000932552
100000.00002869876
100000.00008833228
100000.00027188228
100000.00083682155
100000.00257556145
100000.00792681918
100000.02439588445
100000.07508063561
100000.23106625001
100000.71112468753
100002.18855998796
100006.73557282845
100020.7292702466
100063.78890864603
100196.20892499728
100602.6673129934
101843.30858372607
105572.7086893992
116359.05188425307
144885.25847457055
208700.6381031283
322392.21251328825
481263.4554516874
656661.0478924704
811596.2843717517
923900.8481111088
994217.994489698
1.0354911432584178e6
1.0605850752324099e6
1.0777305770483958e6
1.0911577270179086e6
1.1027721148453525e6
1.113351315049661e6
1.123179304646142e6
1.132337767067388e6
1.140827878836935e6
1.1486177958250062e6
1.1556606565912555e6
1.1619021951488538e6
1.167285339890524e6
1.1717545702732436e6
1.1752778086447204e6
1.1784565859782486e6
1.201479664887718e6
100000.0000003137
100000.00000095695
100000.00000293674
100000.00000902773
100000.00002776676
100000.00008541363
100000.00026274154
100000.00080818661
100000.00248583943
100000.00764563857
100000.02351452335
100000.07231750368
100000.22240212264
100000.68395292989
100002.1033340995
100006.4682286925
100019.89062067706
100061.15859066173
100187.96599402773
100576.90412877542
101763.4131715977
105330.09334921284
115659.98660035347
143094.66222891942
204942.5340839403
316184.1662417057
473143.9337157228
648067.1111176992
803972.472615442
917869.5631673592
989575.4972742759
1.0317270866605826e6
1.057260777579388e6
1.0745707406559468e6
1.0880138991325055e6
1.099571306448966e6
1.1100610380222534e6
1.1197883553051564e6
1.1288466618517106e6
1.137244249932114e6
1.1449539831180908e6
1.1519320167802637e6
1.158125357074601e6
1.1634760396612405e6
1.1679255402228807e6
1.171448651013406e6
1.174841822361615e6
1.1984323190884506e6
100000.00000030163
100000.00000092009
100000.00000282165
100000.00000866826
100000.00002664252
100000.0000818956
100000.00025172865
100000.00077370413
100000.0023778477
100000.00730735771
100000.02245463151
100000.06899590472
100000.21199001654
100000.65130611359
100002.00094374952
100006.1470141319
100018.88267531547
100057.99544419524
100178.04381973558
100545.84747010317
101666.89115006753
105035.98617627555
114807.66649304744
140890.3941652869
200257.20584726168
308347.21226187656
462787.5398986518
637023.9165007974
794142.8432776966
910109.4064236379
983643.331817487
1.0269540260488781e6
1.053063083693371e6
1.070581850465693e6
1.084037864348813e6
1.0955131626675304e6
1.105879052732563e6
1.115467925821214e6
1.1243875141897197e6
1.13265443507817e6
1.1402468874050574e6
1.1471244474626791e6
1.153235828461667e6
1.1585230650589096e6
1.1629270628670529e6
1.166438225916237e6
1.1700685886302327e6
1.194368817844758e6
100000.00000028788
100000.00000087764
100000.0000026895
100000.00000825559
100000.0000253526
100000.00007786142
100000.0002391085
100000.00073421578
100000.00225426038
100000.00692047617
100000.02124323163
100000.065201789
100000.20010345386
100000.61405533236
100001.88416617565
100005.78079774753
100017.73381881547
100054.39058926568
100166.73587392319
100510.44403333787
101556.77874113877
104699.86680953868
113829.4274168635
138337.6674296579
194758.2653864537
299017.94950906787
450301.88212787797
623573.4226795057
782094.7927098506
900595.7611230677
976416.8903769853
1.0211932878996442e6
1.0480304201416739e6
1.0658083137089168e6
1.0792714445916384e6
1.0906312014618234e6
1.1008267592514835e6
1.1102245483432251e6
1.1189498440115731e6
1.1270292813790655e6
1.1344476303917568e6
1.1411692009571828e6
1.1471461575032587e6
1.152323093053175e6
1.1566445344781722e6
1.1601264538182353e6
1.1640169092179378e6
1.1891971700993637e6
100000.00000027256
100000.00000083058
100000.00000254306
100000.00000779884
100000.00002392588
100000.00007340312
100000.0002251733
100000.00069064948
100000.00211802729
100000.00649437675
100000.01991018794
100000.06103029082
100000.18704580501
100000.57316925043
100001.75609938124
100005.37950788754
100016.47594762903
100050.44677776642
100154.37392333384
100471.76481846717
101436.50563245846
104332.4131200648
112756.06584985399
135510.5887687747
188575.95047352117
288350.7545304449
435797.52988322004
607731.2423198544
767759.0212725784
889229.8240734828
967814.8869444823
1.0143954110299312e6
1.0421385169047954e6
1.0602393185529544e6
1.0737074062071168e6
1.0849147990683084e6
1.0948852747774345e6
1.1040273921002494e6
1.112487795908518e6
1.1203052386872515e6
1.1274727755541422e6
1.133961507557765e6
1.1397299156713944e6
1.1447292218936894e6
1.1489136517598087e6
1.1523371765302122e6
1.1565104576304567e6
1.1827874346872044e6
100000.00000025611
100000.00000077975
100000.00000238554
100000.00000730771
100000.00002239332
100000.00006861851
100000.00021023322
100000.00064399018
100000.0019722786
100000.00603901291
100000.01848717824
100000.05658232595
100000.17313893377
100000.52967584266
100001.62003184362
100004.95368381706
100015.14290730059
100046.27291207333
100141.30879318304
100430.93843623898
101309.67168370144
103944.8092523999
111620.03099288877
132489.04598933487
181855.86945827087
276525.2511722293
419409.8764333296
589522.7026738183
751053.9947730227
875885.4223131287
957725.5159411767
1.0064845319326656e6
1.0353424126566673e6
1.0538480721411332e6
1.0673257255859564e6
1.0783423716015858e6
1.0880254253724543e6
1.0968349005118078e6
1.1049431447770384e6
1.1124032981887243e6
1.1192185776419404e6
1.12536935140069e6
1.13082418195981e6
1.135546621811466e6
1.139509483478585e6
1.1428224105407572e6
1.14729946374141e6
1.1749593476796586e6
100000.00000023874
100000.0000007264
100000.00000222
100000.00000679205
100000.00002078613
100000.00006360757
100000.00019460563
100000.00059524462
100000.00182020899
100000.00556452939
100000.01700644624
100000.05196047477
100000.15870953853
100000.48461683367
100001.47928964687
100004.51396025639
100013.76874874151
100041.97814591801
100127.89051288718
100389.08519532147
101179.83426700105
103548.09727489352
110453.67060099948
129355.1823392471
174755.44586581574
263747.3589098576
401307.79626303725
568997.4063049689
731901.3785226489
860421.903607683
946017.0729513966
997368.1854519524
1.0275861211776354e6
1.0466013448619216e6
1.0601028400248443e6
1.0708901801942652e6
1.0802159769383923e6
1.088602280563479e6
1.096251751888666e6
1.1032339033470796e6
1.1095635238435022e6
1.115232444174272e6
1.1202233893127502e6
1.124519493442739e6
1.1281249573331152e6
1.1312318468572889e6
1.1360243689803372e6
1.165465911941461e6
100000.00000022099
100000.00000067157
100000.00000204949
100000.0000062619
100000.00001913597
100000.00005846945
100000.00017860385
100000.00054540453
100000.00166495804
100000.00508087389
100000.01549953276
100000.04726481723
100000.14407543943
100000.43900239927
100001.33708651556
100004.0705703384
100012.38608198587
100037.66645000949
100114.4505004832
100347.25939524273
101050.32510719294
103152.61657074309
109287.6378287484
126189.74907830857
167439.06215873966
250247.5552175958
381698.41338648624
546239.1311472901
710235.7554624894
842689.7927229246
932540.2670949303
986938.8092887765
1.0188048292120598e6
1.0384626940272178e6
1.052015767193828e6
1.062537153676389e6
1.0714289973239978e6
1.0792872209983333e6
1.0863493250016703e6
1.0927021498949965e6
1.0983718860179451e6
1.10336233902088e6
1.1076732812132784e6
1.111315147857896e6
1.114340602403263e6
1.1170644981167691e6
1.12215351110338e6
1.1539634651402251e6
100000.00000020287
100000.00000061591
100000.00000187723
100000.00000572689
100000.00001747278
100000.0000532988
100000.00016252654
100000.00049541188
100000.00150949953
100000.00459743777
100000.0139961072
100000.04258912904
100000.12953317704
100000.39377071215
100001.19639184477
100003.63291571087
100011.02468006675
100033.43210050161
100101.28708620649
100306.40329396348
100924.10552119264
102767.55532894348
108149.5397892928
123068.56265724632
160072.26184030974
236277.1013295446
360829.98411044216
521375.08406633884
686014.5736077095
822536.0397012975
917128.7914975641
975072.7535813953
1.008924638718789e6
1.0293937151864442e6
1.0430449084502304e6
1.0532691317172067e6
1.0616454650042066e6
1.06885681512355e6
1.075179499001802e6
1.0807165306903732e6
1.0855019383275437e6
1.089547742852444e6
1.0928690200469012e6
1.0955080244513785e6
1.0975846222568466e6
1.0995930687430727e6
1.1048711676895965e6
1.1399504486449254e6
100000.00000018484
100000.0000005606
100000.0000017058
100000.00000519564
100000.00001582458
100000.00004818299
100000.0001466485
100000.00044613016
100000.00135654693
100000.0041227503
100000.01252298277
100000.0380177131
100000.11534781844
100000.34975519238
100001.05982575763
100003.20923146236
100009.71041449801
100029.35631858383
100088.65498014695
100267.31429587473
100803.66425739478
102400.62880411855
107062.89515245291
120059.30178812277
152815.2815112209
222102.19473600332
338992.79484249244
494584.9856832035
659229.8347097032
799811.0467243284
899600.2369298523
961628.4069085183
997861.0206327287
1.0193541680582904e6
1.0331761696858171e6
1.0430830478789319e6
1.05086165546103e6
1.0572964221412968e6
1.062705469725298e6
1.067203386503418e6
1.0708224882396858e6
1.0735708377601015e6
1.075466360658849e6
1.076572800623898e6
1.0770869292596623e6
1.0777504766975436e6
1.08287382808133e6
1.1226145578901304e6
100000.00000016693
100000.00000050625
100000.00000153812
100000.00000467639
100000.00001421613
100000.00004320017
100000.0001312128
100000.00039832009
100000.00120847822
100000.00366424063
100000.01110336506
100000.03362302482
100000.10174547668
100000.30766101844
100000.92958572533
100002.80635845335
100008.46455485374
100025.50513667024
100076.75883441954
100230.62561814926
100690.95862741402
102057.88972654821
106046.44717030374
117218.88454411362
145816.28842000692
207995.9294899031
316517.3785562245
466109.3282346577
629921.6862014013
774378.458512747
879758.4127609615
946444.1157832069
985516.2788434058
1.0083010250602643e6
1.0224022863829763e6
1.031990845033751e6
1.0390961058219613e6
1.0446204899956117e6
1.0489258808361818e6
1.0521294028744206e6
1.054243981854822e6
1.0552445666114427e6
1.0551161742379414e6
1.0539070758925993e6
1.0518562833326054e6
1.0499892472809036e6
1.0540098253613769e6
1.1003812456892221e6
100000.00000014988
100000.00000045355
100000.00000137607
100000.00000417572
100000.00001266862
100000.00003841645
100000.00011642644
100000.0003526233
100000.00106728396
100000.0032280796
100000.00975636272
100000.0294641695
100000.08890873645
100000.26805136212
100000.80740569039
100002.42962397213
100007.30342802165
100021.9284529332
100065.75070721182
100196.79966483345
100587.39648662735
101743.66642670361
105113.84926913024
114591.63795591843
139204.85023178658
194228.14188462886
293769.24487382104
436255.64734018483
598193.4360902287
746128.2906896821
857397.9572388155
929336.4132083621
971776.1018941071
996186.2131050826
1.0107228937871881e6
1.0200224481113862e6
1.0263962757619121e6
1.0308843163494519e6
1.0338939616942183e6
1.0355313163007686e6
1.0357594090558595e6
1.0344750624031709e6
1.0315550513740324e6
1.0269236664752975e6
1.0207338539676646e6
1.0142000126366044e6
1.0147607910413136e6
1.069395724441821e6
100000.00000013341
100000.00000040351
100000.00000122165
100000.00000369956
100000.00001120007
100000.00003388656
100000.0001024565
100000.00030955327
100000.00093454057
100000.00281909837
100000.0084967544
100000.02558625399
100000.07697490866
100000.23134294104
100000.69454579553
100002.08282267311
100006.23840483523
100018.66015027935
100055.73097334235
100166.13251750669
100493.85394318162
101460.61500451945
104273.70737920591
112208.40442782558
133086.28284190662
181053.56388678245
271139.44902088644
405401.3549109343
564226.9706330985
714993.6683599774
832312.1574000611
910099.1716545039
956505.2790339454
982952.7039235034
998142.6409781363
1.0072266791111595e6
1.0128432483930066e6
1.0161944176244598e6
1.0177368413568194e6
1.0175514423206316e6
1.0155155820954158e6
1.0113726142916342e6
1.0047599888149893e6
995253.9988511774
982568.7690763179
967621.6742201044
958978.4314965998
1.0156539831242962e6
100000.00000011797
100000.00000035597
100000.0000010763
100000.00000325241
100000.00000982394
100000.0000296516
100000.00008942888
100000.00026949274
100000.0008114047
100000.00244078177
100000.00733499868
100000.0220205223
100000.06603682852
100000.1978098073
100000.59180874853
100001.7682833238
100005.27616213768
100015.71909604175
100046.75204227435
100138.7673687767
100410.72169926515
101209.86449453174
103529.93229150609
110086.62740578417
127537.54823905617
168699.13537581151
249030.6599250542
373991.53950470925
528296.9812931023
680971.0290150056
804304.9577412066
888504.5375443355
939542.8158731014
968528.6363267787
984666.532088114
993668.6324478005
998551.9010663329
1.0007129109118958e6
1.0006715896566851e6
998476.798241238
993884.4567977814
986395.6195251839
975191.1563978544
958927.8267409672
935257.2653708138
899733.7540177549
843263.582782517
740525.3131896587
100000.00000010342
100000.00000031202
100000.00000094109
100000.00000283738
100000.00000854967
100000.00002574097
100000.00007743013
100000.00023269739
100000.00069862841
100000.00209532591
100000.00627744946
100000.01878515111
100000.05614575853
100000.1675938582
100000.49957750739
100001.48700290296
100004.41915657677
100013.11080423814
100038.82414241343
100114.71440728761
100337.97182001754
100991.22933985817
102882.33166852006
108231.34192586165
122605.26371536049
157351.75915870778
227838.93974363504
342530.21127008006
490781.82474339934
644143.013183004
773208.0943776283
864306.8395347736
920697.0170692294
952819.3916367046
970291.8398029384
979422.0373657561
983663.4404489447
984652.6974704888
983004.0168100266
978753.106501119
971550.038635323
960687.6265111975
944993.6508014112
922553.4039165733
890158.6414987671
842321.9594818603
769756.2202691926
656533.3589896559
100000.00000009008
100000.00000027135
100000.00000081667
100000.00000245676
100000.00000738374
100000.00002217157
100000.00006650932
100000.00019930472
100000.00059659006
100000.00178374583
100000.00532673167
100000.01588655572
100000.0473158923
100000.1407203123
100000.41786832335
100001.23882785317
100003.66624205466
100010.82953179354
100031.92240717387
100093.87460870769
100275.23651693248
100803.46194286396
102327.35818036947
106636.8895175395
118306.12581674989
147148.09900853122
207932.20995148842
311563.8408892176
452168.3570744659
604702.3920126384
738904.0227574115
837251.0267113246
899741.6173828546
935698.0596696596
954996.5785872687
964556.0975690454
968328.2577220567
968250.6667996759
965079.5418488947
958882.3737549934
949263.8510768883
935418.5779922897
916049.0500883791
889159.5778707652
851724.9236548262
799307.5795819835
726013.3900566278
625634.4150119534
100000.00000007795
100000.00000023421
100000.00000070345
100000.00000211119
100000.00000632847
100000.00001895004
100000.00005668186
100000.00016934694
100000.00050533823
100000.00150602261
100000.00448223492
100000.01332104325
100000.03952991325
100000.11711635151
100000.34639314299
100001.022662556
100003.013364787
100008.8605905668
100025.99454370761
100076.06506393406
100221.89112813756
100644.51943905537
101858.928490291
105289.10519842173
114629.6872656346
138168.06936554593
189627.28705148652
281656.79355928575
413047.8700603006
562974.3076867784
701354.671316428
807087.4604765583
876414.6796705759
916995.4804729003
938725.6142621894
949118.3536629021
952684.3750946149
951732.6182622929
947224.0796385703
939317.3908701981
927648.215186307
911429.2650837692
889429.5421312688
859880.6937193222
820370.8151407493
767875.3753418686
699305.4416305737
613181.6259924788
100000.00000006697
100000.00000020083
100000.00000060178
100000.00000180083
100000.00000538332
100000.00001607374
100000.0000479346
100000.00014276628
100000.00042464172
100000.00126127139
100000.00374067185
100000.01107666302
100000.03274509757
100000.09663124036
100000.28462582488
100000.83668692337
100002.45427701838
100007.18268370259
100020.96846336505
100061.04382797098
100177.13468721329
100511.82256012673
101469.23616063005
104167.70050967681
111543.04194936504
130433.31527628754
173168.26301848353
253359.42016248568
374100.5137407887
519432.9813697917
660634.9229373271
773594.853406726
850422.5798234665
896491.7910670122
921376.5613766223
933117.4053207873
936835.2102469961
935284.8603198664
929703.0344312286
920404.6506260559
907127.7705950008
889192.3077683002
865547.3800138325
834775.4758932929
795132.3372571036
744757.2711102304
682292.3335304047
608157.3319204662
100000.00000005704
100000.00000017082
100000.00000051093
100000.00000152503
100000.00000454576
100000.00001353228
100000.00004022976
100000.0001194318
100000.00035404494
100000.00104792089
100000.00309666115
100000.0091351072
100000.0268995034
100000.07905644538
100000.2318674423
100000.6785679448
100001.98122098311
100005.770112268
100016.75938478753
100048.53273322702
100140.06305553866
100402.4896785503
101149.49714454102
103248.58987905241
108996.68251420959
123911.20526749642
158709.60652297965
227171.0826237882
336066.5004661898
474708.15781574656
616968.0586104417
736612.569112875
821451.732341636
873911.7266542816
902787.3509056858