# vtk DataFile Version 2.0
JuliaCFD
ASCII
DATASET UNSTRUCTURED_GRID

POINTS 32898 float
0.0 0.0 -0.05
0.0125 0.0 -0.05
0.025 0.0 -0.05
0.0375 0.0 -0.05
0.05 0.0 -0.05
0.0625 0.0 -0.05
0.075 0.0 -0.05
0.0875 0.0 -0.05
0.1 0.0 -0.05
0.1125 0.0 -0.05
0.125 0.0 -0.05
0.1375 0.0 -0.05
0.15 0.0 -0.05
0.1625 0.0 -0.05
0.175 0.0 -0.05
0.1875 0.0 -0.05
0.2 0.0 -0.05
0.2125 0.0 -0.05
0.225 0.0 -0.05
0.2375 0.0 -0.05
0.25 0.0 -0.05
0.2625 0.0 -0.05
0.275 0.0 -0.05
0.2875 0.0 -0.05
0.3 0.0 -0.05
0.3125 0.0 -0.05
0.325 0.0 -0.05
0.3375 0.0 -0.05
0.35 0.0 -0.05
0.3625 0.0 -0.05
0.375 0.0 -0.05
0.3875 0.0 -0.05
0.4 0.0 -0.05
0.4125 0.0 -0.05
0.425 0.0 -0.05
0.4375 0.0 -0.05
0.45 0.0 -0.05
0.4625 0.0 -0.05
0.475 0.0 -0.05
0.4875 0.0 -0.05
0.5 0.0 -0.05
0.5125 0.0 -0.05
0.525 0.0 -0.05
0.5375 0.0 -0.05
0.55 0.0 -0.05
0.5625 0.0 -0.05
0.575 0.0 -0.05
0.5875 0.0 -0.05
0.6 0.0 -0.05
0.0 0.0125 -0.05
0.0125 0.0125 -0.05
0.025 0.0125 -0.05
0.0375 0.0125 -0.05
0.05 0.0125 -0.05
0.0625 0.0125 -0.05
0.075 0.0125 -0.05
0.0875 0.0125 -0.05
0.1 0.0125 -0.05
0.1125 0.0125 -0.05
0.125 0.0125 -0.05
0.1375 0.0125 -0.05
0.15 0.0125 -0.05
0.1625 0.0125 -0.05
0.175 0.0125 -0.05
0.1875 0.0125 -0.05
0.2 0.0125 -0.05
0.2125 0.0125 -0.05
0.225 0.0125 -0.05
0.2375 0.0125 -0.05
0.25 0.0125 -0.05
0.2625 0.0125 -0.05
0.275 0.0125 -0.05
0.2875 0.0125 -0.05
0.3 0.0125 -0.05
0.3125 0.0125 -0.05
0.325 0.0125 -0.05
0.3375 0.0125 -0.05
0.35 0.0125 -0.05
0.3625 0.0125 -0.05
0.375 0.0125 -0.05
0.3875 0.0125 -0.05
0.4 0.0125 -0.05
0.4125 0.0125 -0.05
0.425 0.0125 -0.05
0.4375 0.0125 -0.05
0.45 0.0125 -0.05
0.4625 0.0125 -0.05
0.475 0.0125 -0.05
0.4875 0.0125 -0.05
0.5 0.0125 -0.05
0.5125 0.0125 -0.05
0.525 0.0125 -0.05
0.5375 0.0125 -0.05
0.55 0.0125 -0.05
0.5625 0.0125 -0.05
0.575 0.0125 -0.05
0.5875 0.0125 -0.05
0.6 0.0125 -0.05
0.0 0.025 -0.05
0.0125 0.025 -0.05
0.025 0.025 -0.05
0.0375 0.025 -0.05
0.05 0.025 -0.05
0.0625 0.025 -0.05
0.075 0.025 -0.05
0.0875 0.025 -0.05
0.1 0.025 -0.05
0.1125 0.025 -0.05
0.125 0.025 -0.05
0.1375 0.025 -0.05
0.15 0.025 -0.05
0.1625 0.025 -0.05
0.175 0.025 -0.05
0.1875 0.025 -0.05
0.2 0.025 -0.05
0.2125 0.025 -0.05
0.225 0.025 -0.05
0.2375 0.025 -0.05
0.25 0.025 -0.05
0.2625 0.025 -0.05
0.275 0.025 -0.05
0.2875 0.025 -0.05
0.3 0.025 -0.05
0.3125 0.025 -0.05
0.325 0.025 -0.05
0.3375 0.025 -0.05
0.35 0.025 -0.05
0.3625 0.025 -0.05
0.375 0.025 -0.05
0.3875 0.025 -0.05
0.4 0.025 -0.05
0.4125 0.025 -0.05
0.425 0.025 -0.05
0.4375 0.025 -0.05
0.45 0.025 -0.05
0.4625 0.025 -0.05
0.475 0.025 -0.05
0.4875 0.025 -0.05
0.5 0.025 -0.05
0.5125 0.025 -0.05
0.525 0.025 -0.05
0.5375 0.025 -0.05
0.55 0.025 -0.05
0.5625 0.025 -0.05
0.575 0.025 -0.05
0.5875 0.025 -0.05
0.6 0.025 -0.05
0.0 0.0375 -0.05
0.0125 0.0375 -0.05
0.025 0.0375 -0.05
0.0375 0.0375 -0.05
0.05 0.0375 -0.05
0.0625 0.0375 -0.05
0.075 0.0375 -0.05
0.0875 0.0375 -0.05
0.1 0.0375 -0.05
0.1125 0.0375 -0.05
0.125 0.0375 -0.05
0.1375 0.0375 -0.05
0.15 0.0375 -0.05
0.1625 0.0375 -0.05
0.175 0.0375 -0.05
0.1875 0.0375 -0.05
0.2 0.0375 -0.05
0.2125 0.0375 -0.05
0.225 0.0375 -0.05
0.2375 0.0375 -0.05
0.25 0.0375 -0.05
0.2625 0.0375 -0.05
0.275 0.0375 -0.05
0.2875 0.0375 -0.05
0.3 0.0375 -0.05
0.3125 0.0375 -0.05
0.325 0.0375 -0.05
0.3375 0.0375 -0.05
0.35 0.0375 -0.05
0.3625 0.0375 -0.05
0.375 0.0375 -0.05
0.3875 0.0375 -0.05
0.4 0.0375 -0.05
0.4125 0.0375 -0.05
0.425 0.0375 -0.05
0.4375 0.0375 -0.05
0.45 0.0375 -0.05
0.4625 0.0375 -0.05
0.475 0.0375 -0.05
0.4875 0.0375 -0.05
0.5 0.0375 -0.05
0.5125 0.0375 -0.05
0.525 0.0375 -0.05
0.5375 0.0375 -0.05
0.55 0.0375 -0.05
0.5625 0.0375 -0.05
0.575 0.0375 -0.05
0.5875 0.0375 -0.05
0.6 0.0375 -0.05
0.0 0.05 -0.05
0.0125 0.05 -0.05
0.025 0.05 -0.05
0.0375 0.05 -0.05
0.05 0.05 -0.05
0.0625 0.05 -0.05
0.075 0.05 -0.05
0.0875 0.05 -0.05
0.1 0.05 -0.05
0.1125 0.05 -0.05
0.125 0.05 -0.05
0.1375 0.05 -0.05
0.15 0.05 -0.05
0.1625 0.05 -0.05
0.175 0.05 -0.05
0.1875 0.05 -0.05
0.2 0.05 -0.05
0.2125 0.05 -0.05
0.225 0.05 -0.05
0.2375 0.05 -0.05
0.25 0.05 -0.05
0.2625 0.05 -0.05
0.275 0.05 -0.05
0.2875 0.05 -0.05
0.3 0.05 -0.05
0.3125 0.05 -0.05
0.325 0.05 -0.05
0.3375 0.05 -0.05
0.35 0.05 -0.05
0.3625 0.05 -0.05
0.375 0.05 -0.05
0.3875 0.05 -0.05
0.4 0.05 -0.05
0.4125 0.05 -0.05
0.425 0.05 -0.05
0.4375 0.05 -0.05
0.45 0.05 -0.05
0.4625 0.05 -0.05
0.475 0.05 -0.05
0.4875 0.05 -0.05
0.5 0.05 -0.05
0.5125 0.05 -0.05
0.525 0.05 -0.05
0.5375 0.05 -0.05
0.55 0.05 -0.05
0.5625 0.05 -0.05
0.575 0.05 -0.05
0.5875 0.05 -0.05
0.6 0.05 -0.05
0.0 0.0625 -0.05
0.0125 0.0625 -0.05
0.025 0.0625 -0.05
0.0375 0.0625 -0.05
0.05 0.0625 -0.05
0.0625 0.0625 -0.05
0.075 0.0625 -0.05
0.0875 0.0625 -0.05
0.1 0.0625 -0.05
0.1125 0.0625 -0.05
0.125 0.0625 -0.05
0.1375 0.0625 -0.05
0.15 0.0625 -0.05
0.1625 0.0625 -0.05
0.175 0.0625 -0.05
0.1875 0.0625 -0.05
0.2 0.0625 -0.05
0.2125 0.0625 -0.05
0.225 0.0625 -0.05
0.2375 0.0625 -0.05
0.25 0.0625 -0.05
0.2625 0.0625 -0.05
0.275 0.0625 -0.05
0.2875 0.0625 -0.05
0.3 0.0625 -0.05
0.3125 0.0625 -0.05
0.325 0.0625 -0.05
0.3375 0.0625 -0.05
0.35 0.0625 -0.05
0.3625 0.0625 -0.05
0.375 0.0625 -0.05
0.3875 0.0625 -0.05
0.4 0.0625 -0.05
0.4125 0.0625 -0.05
0.425 0.0625 -0.05
0.4375 0.0625 -0.05
0.45 0.0625 -0.05
0.4625 0.0625 -0.05
0.475 0.0625 -0.05
0.4875 0.0625 -0.05
0.5 0.0625 -0.05
0.5125 0.0625 -0.05
0.525 0.0625 -0.05
0.5375 0.0625 -0.05
0.55 0.0625 -0.05
0.5625 0.0625 -0.05
0.575 0.0625 -0.05
0.5875 0.0625 -0.05
0.6 0.0625 -0.05
0.0 0.075 -0.05
0.0125 0.075 -0.05
0.025 0.075 -0.05
0.0375 0.075 -0.05
0.05 0.075 -0.05
0.0625 0.075 -0.05
0.075 0.075 -0.05
0.0875 0.075 -0.05
0.1 0.075 -0.05
0.1125 0.075 -0.05
0.125 0.075 -0.05
0.1375 0.075 -0.05
0.15 0.075 -0.05
0.1625 0.075 -0.05
0.175 0.075 -0.05
0.1875 0.075 -0.05
0.2 0.075 -0.05
0.2125 0.075 -0.05
0.225 0.075 -0.05
0.2375 0.075 -0.05
0.25 0.075 -0.05
0.2625 0.075 -0.05
0.275 0.075 -0.05
0.2875 0.075 -0.05
0.3 0.075 -0.05
0.3125 0.075 -0.05
0.325 0.075 -0.05
0.3375 0.075 -0.05
0.35 0.075 -0.05
0.3625 0.075 -0.05
0.375 0.075 -0.05
0.3875 0.075 -0.05
0.4 0.075 -0.05
0.4125 0.075 -0.05
0.425 0.075 -0.05
0.4375 0.075 -0.05
0.45 0.075 -0.05
0.4625 0.075 -0.05
0.475 0.075 -0.05
0.4875 0.075 -0.05
0.5 0.075 -0.05
0.5125 0.075 -0.05
0.525 0.075 -0.05
0.5375 0.075 -0.05
0.55 0.075 -0.05
0.5625 0.075 -0.05
0.575 0.075 -0.05
0.5875 0.075 -0.05
0.6 0.075 -0.05
0.0 0.0875 -0.05
0.0125 0.0875 -0.05
0.025 0.0875 -0.05
0.0375 0.0875 -0.05
0.05 0.0875 -0.05
0.0625 0.0875 -0.05
0.075 0.0875 -0.05
0.0875 0.0875 -0.05
0.1 0.0875 -0.05
0.1125 0.0875 -0.05
0.125 0.0875 -0.05
0.1375 0.0875 -0.05
0.15 0.0875 -0.05
0.1625 0.0875 -0.05
0.175 0.0875 -0.05
0.1875 0.0875 -0.05
0.2 0.0875 -0.05
0.2125 0.0875 -0.05
0.225 0.0875 -0.05
0.2375 0.0875 -0.05
0.25 0.0875 -0.05
0.2625 0.0875 -0.05
0.275 0.0875 -0.05
0.2875 0.0875 -0.05
0.3 0.0875 -0.05
0.3125 0.0875 -0.05
0.325 0.0875 -0.05
0.3375 0.0875 -0.05
0.35 0.0875 -0.05
0.3625 0.0875 -0.05
0.375 0.0875 -0.05
0.3875 0.0875 -0.05
0.4 0.0875 -0.05
0.4125 0.0875 -0.05
0.425 0.0875 -0.05
0.4375 0.0875 -0.05
0.45 0.0875 -0.05
0.4625 0.0875 -0.05
0.475 0.0875 -0.05
0.4875 0.0875 -0.05
0.5 0.0875 -0.05
0.5125 0.0875 -0.05
0.525 0.0875 -0.05
0.5375 0.0875 -0.05
0.55 0.0875 -0.05
0.5625 0.0875 -0.05
0.575 0.0875 -0.05
0.5875 0.0875 -0.05
0.6 0.0875 -0.05
0.0 0.1 -0.05
0.0125 0.1 -0.05
0.025 0.1 -0.05
0.0375 0.1 -0.05
0.05 0.1 -0.05
0.0625 0.1 -0.05
0.075 0.1 -0.05
0.0875 0.1 -0.05
0.1 0.1 -0.05
0.1125 0.1 -0.05
0.125 0.1 -0.05
0.1375 0.1 -0.05
0.15 0.1 -0.05
0.1625 0.1 -0.05
0.175 0.1 -0.05
0.1875 0.1 -0.05
0.2 0.1 -0.05
0.2125 0.1 -0.05
0.225 0.1 -0.05
0.2375 0.1 -0.05
0.25 0.1 -0.05
0.2625 0.1 -0.05
0.275 0.1 -0.05
0.2875 0.1 -0.05
0.3 0.1 -0.05
0.3125 0.1 -0.05
0.325 0.1 -0.05
0.3375 0.1 -0.05
0.35 0.1 -0.05
0.3625 0.1 -0.05
0.375 0.1 -0.05
0.3875 0.1 -0.05
0.4 0.1 -0.05
0.4125 0.1 -0.05
0.425 0.1 -0.05
0.4375 0.1 -0.05
0.45 0.1 -0.05
0.4625 0.1 -0.05
0.475 0.1 -0.05
0.4875 0.1 -0.05
0.5 0.1 -0.05
0.5125 0.1 -0.05
0.525 0.1 -0.05
0.5375 0.1 -0.05
0.55 0.1 -0.05
0.5625 0.1 -0.05
0.575 0.1 -0.05
0.5875 0.1 -0.05
0.6 0.1 -0.05
0.0 0.1125 -0.05
0.0125 0.1125 -0.05
0.025 0.1125 -0.05
0.0375 0.1125 -0.05
0.05 0.1125 -0.05
0.0625 0.1125 -0.05
0.075 0.1125 -0.05
0.0875 0.1125 -0.05
0.1 0.1125 -0.05
0.1125 0.1125 -0.05
0.125 0.1125 -0.05
0.1375 0.1125 -0.05
0.15 0.1125 -0.05
0.1625 0.1125 -0.05
0.175 0.1125 -0.05
0.1875 0.1125 -0.05
0.2 0.1125 -0.05
0.2125 0.1125 -0.05
0.225 0.1125 -0.05
0.2375 0.1125 -0.05
0.25 0.1125 -0.05
0.2625 0.1125 -0.05
0.275 0.1125 -0.05
0.2875 0.1125 -0.05
0.3 0.1125 -0.05
0.3125 0.1125 -0.05
0.325 0.1125 -0.05
0.3375 0.1125 -0.05
0.35 0.1125 -0.05
0.3625 0.1125 -0.05
0.375 0.1125 -0.05
0.3875 0.1125 -0.05
0.4 0.1125 -0.05
0.4125 0.1125 -0.05
0.425 0.1125 -0.05
0.4375 0.1125 -0.05
0.45 0.1125 -0.05
0.4625 0.1125 -0.05
0.475 0.1125 -0.05
0.4875 0.1125 -0.05
0.5 0.1125 -0.05
0.5125 0.1125 -0.05
0.525 0.1125 -0.05
0.5375 0.1125 -0.05
0.55 0.1125 -0.05
0.5625 0.1125 -0.05
0.575 0.1125 -0.05
0.5875 0.1125 -0.05
0.6 0.1125 -0.05
0.0 0.125 -0.05
0.0125 0.125 -0.05
0.025 0.125 -0.05
0.0375 0.125 -0.05
0.05 0.125 -0.05
0.0625 0.125 -0.05
0.075 0.125 -0.05
0.0875 0.125 -0.05
0.1 0.125 -0.05
0.1125 0.125 -0.05
0.125 0.125 -0.05
0.1375 0.125 -0.05
0.15 0.125 -0.05
0.1625 0.125 -0.05
0.175 0.125 -0.05
0.1875 0.125 -0.05
0.2 0.125 -0.05
0.2125 0.125 -0.05
0.225 0.125 -0.05
0.2375 0.125 -0.05
0.25 0.125 -0.05
0.2625 0.125 -0.05
0.275 0.125 -0.05
0.2875 0.125 -0.05
0.3 0.125 -0.05
0.3125 0.125 -0.05
0.325 0.125 -0.05
0.3375 0.125 -0.05
0.35 0.125 -0.05
0.3625 0.125 -0.05
0.375 0.125 -0.05
0.3875 0.125 -0.05
0.4 0.125 -0.05
0.4125 0.125 -0.05
0.425 0.125 -0.05
0.4375 0.125 -0.05
0.45 0.125 -0.05
0.4625 0.125 -0.05
0.475 0.125 -0.05
0.4875 0.125 -0.05
0.5 0.125 -0.05
0.5125 0.125 -0.05
0.525 0.125 -0.05
0.5375 0.125 -0.05
0.55 0.125 -0.05
0.5625 0.125 -0.05
0.575 0.125 -0.05
0.5875 0.125 -0.05
0.6 0.125 -0.05
0.0 0.1375 -0.05
0.0125 0.1375 -0.05
0.025 0.1375 -0.05
0.0375 0.1375 -0.05
0.05 0.1375 -0.05
0.0625 0.1375 -0.05
0.075 0.1375 -0.05
0.0875 0.1375 -0.05
[...]
CELL_DATA 16128
SCALARS P float 1
LOOKUP_TABLE default
100000.0000000001
100000.00000000003
100000.00000000086
100000.00000000284
100000.00000001032
100000.00000003591
100000.00000012547
100000.00000043608
100000.00000151242
100000.00000522935
100000.00001802498
100000.0000619442
100000.00021226158
100000.00072532307
100000.00247187348
100000.00840232961
100000.02849021355
100000.09637344364
100000.32525714254
100001.09532843716
100003.68083480893
100012.34409670382
100041.31251682261
100137.95112836435
100459.23663465267
101520.13985081669
104966.8098776959
115721.48382270332
146179.34393987467
217716.43471127283
348090.06383394974
530293.8467653067
727388.9086044836
894045.4280102492
1.0067129433101839e6
1.0712156590361295e6
1.1059765117152056e6
1.1261937442888806e6
1.1401288934057713e6
1.151328655598932e6
1.1610704119896798e6
1.169727790366292e6
1.1773635999738707e6
1.1839501113528847e6
1.1894404245993295e6
1.193791206142144e6
1.197199334244108e6
1.2199656813123967e6
100000.00000000003
100000.00000000013
100000.00000000087
100000.00000000282
100000.0000000101
100000.00000003562
100000.00000012433
100000.00000043203
100000.00000149805
100000.00000517923
100000.0000178502
100000.00006133605
100000.00021015063
100000.00071801481
100000.0024466299
100000.00831533459
100000.02819109248
100000.09534729536
100000.32174512446
100001.08333829719
100003.64001345189
100012.20557820913
100040.84453902801
100136.38037176905
100454.02291896478
101503.2058107288
104914.28397148584
115574.55621578297
145855.73228553173
217308.66715098647
348281.5939350189
532500.1652113051
733134.0730836359
903965.0131327208
1.0202658588543152e6
1.0873238333285146e6
1.123699153817037e6
1.1449293273104639e6
1.1595382497910024e6
1.171218916626724e6
1.181315938641245e6
1.1902280073888856e6
1.1980244044495854e6
1.2046789781069392e6
1.210150144213518e6
1.2144122607118352e6
1.2177687504955092e6
1.240942745325559e6
100000.0
100000.00000000012
100000.0000000008
100000.00000000281
100000.00000000984
100000.00000003482
100000.0000001217
100000.00000042304
100000.00000146702
100000.00000507008
100000.0000174691
100000.0000600095
100000.00020554395
100000.00070205641
100000.0023914775
100000.00812515989
100000.02753679821
100000.09310115915
100000.31405133073
100001.05704377052
100003.55036157276
100011.90070439194
100039.81095847214
100132.89058785264
100442.31552325183
101464.41157894486
104789.14447089488
115195.1504700555
144854.1219539222
215219.8662060127
344993.41517864785
528583.8021219975
729599.817140775
901592.9358683941
1.0191731855211366e6
1.0871531580973284e6
1.1240210763634131e6
1.1454348802444313e6
1.160044430807363e6
1.1716251112799102e6
1.1815683674058667e6
1.1902992072562375e6
1.1979030350188615e6
1.2043651627704743e6
1.2096531609699805e6
1.2137528515170347e6
1.21712206368311e6
1.2405928981827083e6
99999.99999999997
100000.00000000012
100000.00000000074
100000.00000000274
100000.00000000956
100000.00000003375
100000.00000011794
100000.00000040994
100000.00000142075
100000.00000490839
100000.00001690508
100000.00005804586
100000.0001987266
100000.00067844195
100000.0023098688
100000.00784376306
100000.02656860322
100000.08977691758
100000.30266121517
100001.01809619996
100003.4174547625
100011.44811652115
100038.27327908333
100127.68107121004
100424.74474949445
101405.69044274332
104597.14589244012
114600.37109924252
143230.50516534358
211667.22957062125
339022.0963877845
520783.7260147079
721487.2411346412
894625.0027784621
1.0138698762067487e6
1.0831879931108418e6
1.1208383978209512e6
1.1426184474489249e6
1.1573630159415812e6
1.1689714125683412e6
1.178902211098744e6
1.1876136379713777e6
1.1952064343976816e6
1.201671305447667e6
1.2069742035920536e6
1.2111004763223773e6
1.2146815334516796e6
1.2386507674344685e6
100000.0
100000.00000000012
100000.00000000071
100000.00000000265
100000.0000000092
100000.00000003236
100000.00000011292
100000.00000039297
100000.00000136133
100000.0000047003
100000.00001617854
100000.0000555178
100000.00018995076
100000.00064805346
100000.00220487868
100000.00748182219
100000.02532347404
100000.0855020997
100000.28801304771
100000.96799529031
100003.24640017128
100010.86511518843
100036.28978782869
100120.94720317163
100401.9629213774
101329.21258429883
104345.43989643345
113812.82991700416
141048.13869582224
206801.5745295339
330692.7446014962
509730.12968864857
709838.0385104432
884515.056798795
1.0061211157529393e6
1.0773706615755642e6
1.1161575325867077e6
1.1384736081933477e6
1.1534252734144714e6
1.1650922503098082e6
1.1750273270260363e6
1.1837321807267072e6
1.1913252044589524e6
1.1978016708737758e6
1.2031250826835125e6
1.207286369402121e6
1.2111196223596097e6
1.235716780799297e6
100000.0
100000.0000000001
100000.00000000058
100000.00000000242
100000.0000000088
100000.00000003063
100000.00000010736
100000.00000037272
100000.00000129019
100000.00000445188
100000.00001531249
100000.00005250523
100000.00017949943
100000.0006118782
100000.00207995226
100000.00705133505
100000.02384309386
100000.0804212067
100000.27060670382
100000.90846697794
100003.0431479934
100010.17219675389
100033.93110332836
100112.9326579989
100374.81246210051
101237.88447952284
104043.86619702821
112863.58154917856
138388.0347179022
200776.73997124683
320216.20832658117
495645.40998594597
694851.896274222
871449.7190212858
996134.7666243482
1.0699437847901157e6
1.1102401713152912e6
1.1332565124024628e6
1.1484622733611946e6
1.1601815617458487e6
1.1700941957855744e6
1.1787596224712203e6
1.1863196691376583e6
1.1927769399696637e6
1.1980955084170317e6
1.2022809590329214e6
1.2063916261679358e6
1.2317672702586376e6
100000.0
100000.0000000001
100000.00000000061
100000.0000000022
100000.00000000815
100000.0000000288
100000.0000001005
100000.00000034971
100000.00000120964
100000.00000417072
100000.00001433252
100000.00004909937
100000.0001676902
100000.00057103117
100000.00193898508
100000.00656589273
100000.02217480501
100000.07469892481
100000.251014476
100000.84149882213
100002.81460080708
100009.39335005061
100031.2807207851
100103.9286241614
100344.30974450379
101135.23479396274
103704.38143593611
111790.22026327754
135347.4879301181
193770.39075102864
307804.2575707454
478677.4120009773
676543.3470835394
855334.3084299394
983791.4908742446
1.0608224824705683e6
1.1030425571031237e6
1.1269458968351267e6
1.142455617546156e6
1.154210685003938e6
1.1640568239754816e6
1.1726298139747176e6
1.1801037484331564e6
1.186493827231329e6
1.1917698270762633e6
1.1959624208985255e6
1.2003757110004371e6
1.226714053667339e6
100000.0
100000.0000000001
100000.00000000058
100000.00000000192
100000.0000000077
100000.00000002689
100000.00000009363
100000.0000003247
100000.00000112203
100000.00000386451
100000.00001326657
100000.00004539784
100000.00015486797
100000.00052671907
100000.00178619758
100000.00604023022
100000.02036999159
100000.06851427209
100000.22985967048
100000.76926059375
100002.56831359828
100008.5549000172
100028.43046719274
100094.25570916788
100311.57317241035
101025.13696029449
103340.07405681639
110634.0212595394
132035.3676746334
185987.03238193036
293704.4513888751
458993.38735570275
654903.4523902108
836003.6793246571
968876.7205170159
1.049827672553187e6
1.0944397289826842e6
1.1194528715959282e6
1.1353294392534092e6
1.1470999946295137e6
1.1568217774035065e6
1.1652302401210284e6
1.1725438545082577e6
1.178798266000203e6
1.1839764945111657e6
1.1881475202070381e6
1.1928897033935536e6
1.2204256181310613e6
100000.0
100000.00000000013
100000.00000000055
100000.00000000188
100000.00000000712
100000.00000002475
100000.000000086
100000.00000029811
100000.0000010295
100000.00000354163
100000.00001214391
100000.00004150267
100000.00014138853
100000.0004801872
100000.00162594268
100000.00548953864
100000.01848160861
100000.0620516771
100000.20778420067
100000.69398576255
100002.31205712027
100007.68388792539
100025.47446590586
100084.2414681316
100277.74038763503
100911.51272015004
102964.16785565147
109437.03184446374
128566.2515775716
177653.98475869323
278209.73090503353
436811.3095080132
629949.1453735563
813276.768860911
951130.8252674161
1.0367305536029972e6
1.0842656731001348e6
1.1106570046504398e6
1.126981789452212e6
1.1387447218713204e6
1.1482675556505383e6
1.1564141111163124e6
1.1634630034855325e6
1.1694812516295859e6
1.1744761841658934e6
1.1785739066604138e6
1.1836705267232165e6
1.2127147457798924e6
100000.0
100000.00000000012
100000.00000000047
100000.00000000185
100000.00000000645
100000.00000002258
100000.00000007832
100000.00000027099
100000.00000093444
100000.00000321041
100000.00001099274
100000.0000375139
100000.00012760269
100000.00043266237
100000.00146249933
100000.00492872589
100000.01656152697
100000.05549142291
100000.18541410254
100000.6178466935
100002.05336527461
100006.8064288656
100022.5031876221
100074.19898589294
100243.8921054846
100798.06744269103
102589.14124641678
108239.38939784159
125054.09121931868
169013.7818905373
261659.08799994024
412415.0933188286
601748.6817031666
786980.3601041811
930263.9120187187
1.0212610346472365e6
1.0723203288674178e6
1.1004138874830157e6
1.1172923986036347e6
1.1290216865187953e6
1.1382488029215175e6
1.146000395155714e6
1.1526348630633913e6
1.1582651318369724e6
1.1629388885196527e6
1.166867803771769e6
1.1723362315971376e6
1.203318247665223e6
100000.0
100000.00000000007
100000.00000000051
100000.00000000166
100000.0000000059
100000.00000002036
100000.0000000704
100000.00000024351
100000.000000839
100000.0000028783
100000.00000984033
100000.00003352616
100000.00011384148
100000.00038529739
100000.00129987876
100000.00437172421
100000.01465805997
100000.04900081057
100000.16332795261
100000.54284181933
100001.79913257078
100005.94627983701
100019.59838279418
100064.40908195957
100210.99030757017
100688.07862439219
102226.01901304089
107077.03508244506
121605.88640001259
160314.0702030936
244433.15979599516
386164.6738831409
570443.7599370078
756970.1811693794
905965.7234392603
1.0031087636428443e6
1.0583689168009912e6
1.0885565877224775e6
1.1061265442297177e6
1.117794258849272e6
1.1266003560229975e6
1.1337743781670332e6
1.13977750219051e6
1.144786579323657e6
1.148911634636666e6
1.152492760048673e6
1.1583200288945234e6
1.1918632229843112e6
100000.0
100000.00000000012
100000.00000000038
100000.00000000144
100000.00000000534
100000.00000001806
100000.0000000628
100000.00000021656
100000.00000074517
100000.00000255233
100000.00000871095
100000.0000296248
100000.000100402
100000.00033912522
100000.00114166
100000.00383090778
100000.01281390633
100000.04272689999
100000.14203128638
100000.47070574545
100001.55529954315
100005.12374503036
100016.82929979207
100055.10735884395
100179.83427402446
100584.24740711377
101883.8686174914
105979.9642723937
118315.88311921965
151795.58046467626
226944.92216877514
358502.09881299303
536272.2516192362
723156.5079137424
877919.0352623847
981924.0306299396
1.0421391606532095e6
1.0748953912054098e6
1.0933389093135104e6
1.1049194496048505e6
1.11314555681401e6
1.1194947840735235e6
1.124553944441132e6
1.1285800616237235e6
1.1317742465955284e6
1.1346675508701783e6
1.1407508348854706e6
1.1777985549156454e6
100000.0
100000.00000000015
100000.0000000003
100000.0000000013
100000.00000000454
100000.000000016
100000.00000005525
100000.00000019059
100000.00000065473
100000.00000223867
100000.00000762608
100000.00002588365
100000.00008753913
100000.00029502378
100000.00099086702
100000.00331666377
100000.0110646587
100000.03679133036
100000.12193873624
100000.40284802116
100001.32664445294
100004.35497387292
100014.25034547922
100046.47649662918
100151.0354141193
100488.615753548
101569.51426368955
104971.1142473185
115260.8519468325
143678.98047264543
209624.88228327443
329951.90203597123
499590.65579005337
685536.092428787
845820.3176059442
957321.8618901746
1.0233183974421291e6
1.0592170637377403e6
1.0787786662214792e6
1.0902588437335491e6
1.0977108680653311e6
1.1029051063987038e6
1.1065774640082577e6
1.1090745449440768e6
1.1106996489501144e6
1.112249825468775e6
1.1182354327173016e6
1.1602214492271156e6
100000.0
100000.00000000015
100000.00000000028
100000.00000000109
100000.00000000403
100000.00000001409
100000.0000000482
100000.0000001661
100000.000000569
100000.0000019422
100000.00000660252
100000.00002236188
100000.00007545686
100000.00025369391
100000.00084989179
100000.0028371344
100000.00943793007
100000.03128741805
100000.10336446452
100000.34032208343
100001.11668443857
100003.65165433355
100011.90016500995
100038.64360631608
100125.00996364551
100402.54588678677
101287.46234076597
104065.927475459
112496.9551765976
136151.89232060502
192900.53091514597
301113.1299419802
460893.2540107323
644229.9917233875
809410.2309453075
928892.1040881312
1.0015519383072199e6
1.0412839799388177e6
1.0622960675526126e6
1.0736937827528336e6
1.0801503594566179e6
1.0837742906518625e6
1.085456852748638e6
1.0856089297974631e6
1.0846159286227112e6
1.0835869506031335e6
1.0884875660395506e6
1.1373947018832583e6
100000.0
100000.00000000015
100000.00000000026
100000.00000000103
100000.00000000357
100000.00000001198
100000.00000004163
100000.00000014325
100000.00000048935
100000.00000166666
100000.00000565371
100000.00001910432
100000.00006430698
100000.00021564928
100000.00072046673
100000.00239812772
100000.00795309943
100000.02627946046
100000.08652051515
100000.28382252953
100000.9276776038
100003.02106419115
100009.80198437642
100031.68201315895
100101.98714633443
100326.75351903542
101040.0132462326
103272.55587815422
110058.5411426335
129357.79056913397
177170.84377526538
272640.3732412789
420823.4277510919
599524.8375668108
768515.6985321293
896218.5749872742
976444.1833000712
1.0208330407416753e6
1.0437502353338427e6
1.0551505235299605e6
1.0603931742986697e6
1.061964977098252e6
1.0608779434047642e6
1.0575270251806737e6
1.0522621739502354e6
1.0464170092841613e6
1.0477653339394389e6
1.1051498096127529e6
100000.0
100000.00000000015
100000.00000000028
100000.00000000095
100000.00000000298
100000.00000001039
100000.0000000357
100000.00000012203
100000.00000041633
100000.00000141491
100000.00000478834
100000.00001614048
100000.00005418957
100000.00018122025
100000.00060367702
100000.00200318379
100000.00662159963
100000.02180397628
100000.07152200698
100000.2337064494
100000.7607093045
100002.46641546597
100007.96496830233
100025.61654013103
100082.0293751794
100261.38270318753
100827.51981400017
102592.60342592753
107958.93137839211
123388.63076182354
162778.13415831927
245211.98405537516
380171.4840124248
551912.5769235654
723103.7990874436
858910.6292328562
947564.3622585994
997573.5262152994
1.0230150361708815e6
1.0346286957910816e6
1.0385090630399768e6
1.037539143532293e6
1.0327747120412348e6
1.024396933708139e6
1.0123732823700258e6
997768.2672758667
989527.4121671316
1.0486794568908245e6
100000.0
100000.00000000015
100000.00000000025
100000.00000000073
100000.0000000026
100000.00000000873
100000.00000003002
100000.00000010298
100000.0000003505
100000.00000118828
100000.00000401157
100000.00001348679
100000.00004515509
100000.00015056596
100000.00050001258
100000.00165376578
100000.00544764879
100000.01787248006
100000.058397635
100000.19003303666
100000.61584101335
100001.98741162139
100006.38629668113
100020.43120416303
100065.06054671931
100206.10819862805
100648.74379415132
102022.25494386359
106192.95617378481
118282.68693330145
149981.24159371582
219485.56803577635
339853.02835536207
502120.8085831228
673345.005210864
816650.2857505294
914459.5931951532
971183.4816613761
999982.9506735306
1.0122227478917851e6
1.014773239883735e6
1.0109113939308495e6
1.0015866161068294e6
986215.7751969076
962719.9104656937
926646.8436735421
868636.1721056023
762248.1992064888
100000.0
100000.00000000003
100000.0000000002
100000.00000000063
100000.00000000211
100000.00000000723
100000.00000002525
100000.00000008594
100000.00000029187
100000.00000098738
100000.00000332468
100000.00001114659
100000.00003721136
100000.00012369607
100000.00040944252
100000.00134954299
100000.00442929148
100000.01447531545
100000.04710373862
100000.15261509831
100000.49229842641
100001.58093267077
100005.05365239253
100016.07821814253
100050.89845287541
100160.25112110037
100501.25989744079
101553.61615462838
104740.73486306233
114028.15964466833
138935.26686950473
196043.98345998692
300863.12601571815
451123.2226571315
619679.0776166369
769256.3896005412
876677.1238602864
941297.4112235988
974543.2778239369
988130.0657361344
989744.3063726504
983189.1117747963
969499.8960828485
947742.5082060765
915062.6751440492
865973.6905233848
790910.1472757094
673209.5776717996
100000.0
99999.99999999994
100000.00000000016
100000.00000000036
100000.00000000179
100000.00000000608
100000.00000002082
100000.00000007094
100000.00000024062
100000.00000081168
100000.00000272604
100000.00000911312
100000.00003032971
100000.00010049518
100000.00033151027
100000.00108872792
100000.00355962105
100000.01158606893
100000.03754020574
100000.12107622121
100000.38867645008
100001.24176832111
100003.94783623672
100012.48728984095
100039.28773199063
100122.89512204283
100381.86134158814
101176.09487538096
103572.06160201918
110571.8724168628
129682.97525525758
175339.14194982572
264204.9195665537
400118.66449464735
562872.1132815895
716765.541325747
833802.4187053464
907490.0302157116
946519.7923552216
962522.8049625423
964001.2879436875
955490.2122979566
938445.730304343
912163.7493105362
874144.957342179
820075.9927426258
743961.3610118179
639339.7300908049
100000.0
99999.99999999997
100000.00000000013
100000.00000000025
100000.00000000135
100000.00000000479
100000.00000001707
100000.00000005799
100000.00000019625
100000.00000066044
100000.0000022116
100000.00000737097
100000.00002445349
100000.00008075172
100000.00026543235
100000.0008684362
100000.00282806122
100000.0091661286
100000.02956666185
100000.0949081121
100000.30314174837
100000.96333139222
100003.04527231111
100009.57439330831
100029.93048510913
100092.99297330664
100286.9300747076
100877.68105683185
102650.77012781157
107831.24974427099
122160.93998436986
157644.71818603072
230797.26387936075
350469.29486309335
504048.4030599168
659525.0333832261
785522.7373375582
869270.939786112
915603.0641167805
935417.6318004157
937916.2785225018
928549.2034291576
909496.7862818443
880691.9553021132
840497.9435332132
786193.8101144093
714776.5662497688
624796.181139873
100000.0
100000.0
100000.00000000007
100000.00000000017
100000.00000000108
100000.00000000399
100000.00000001372
100000.00000004694
100000.00000015848
100000.0000005318
100000.00000177536
100000.00000589895
100000.00001950513
100000.00006418531
100000.00021019852
100000.00068503563
100000.00222159995
100000.00716902604
100000.02301768716
100000.07352376645
100000.23361787961
100000.73830025377
100002.32022926428
100007.2494210976
100022.51255300907
100069.45666979966
100212.74676127071
100646.02550119697
101938.58339283925
105707.21653280826
116219.72478486439
143030.3412476935
201373.6799709727
303594.30226700637
444677.7406761244
598285.0873906707
731725.3112658464
826115.2131992733
881314.115576499
906597.2576985073
911555.6509250369
902646.4411823498
882988.8573014891
853377.273787535
813164.3120321593
761007.918268735
695806.1505272434
618166.6709061504
100000.0
100000.0
100000.00000000015
100000.0000000002
100000.00000000095
100000.00000000325
100000.00000001109
100000.00000003772
100000.00000012679
100000.00000042384
100000.0000014106
100000.00000467157
100000.00001539408
100000.00005047358
100000.00016466228
100000.0005344668
100000.0017259025
100000.0055442986
100000.01771616821
100000.0563034434
100000.17794296169
100000.55915710851
100001.74664938466
100005.42236959653
100016.72434410943
100051.22746288653
100155.72797014574
100469.26399744657
101398.14661915155
104095.8592434719
111653.34594558518
131366.6944034184
176392.58363288594
260825.84562378854
386500.1951643332
534266.1430837121
672627.8921562644
777545.9490604592
843017.5572193011
875584.0633372805
884664.6474848783
877665.2794557357
858763.0414712849
829724.2465236458
790868.2192445358
741922.0579232661
682900.1656911806
615141.9240566669
100000.0