# vtk DataFile Version 2.0
JuliaCFD
ASCII
DATASET UNSTRUCTURED_GRID

POINTS 32898 float
0.0 0.0 -0.05
0.0125 0.0 -0.05
0.025 0.0 -0.05
0.0375 0.0 -0.05
0.05 0.0 -0.05
0.0625 0.0 -0.05
0.075 0.0 -0.05
0.0875 0.0 -0.05
0.1 0.0 -0.05
0.1125 0.0 -0.05
0.125 0.0 -0.05
0.1375 0.0 -0.05
0.15 0.0 -0.05
0.1625 0.0 -0.05
0.175 0.0 -0.05
0.1875 0.0 -0.05
0.2 0.0 -0.05
0.2125 0.0 -0.05
0.225 0.0 -0.05
0.2375 0.0 -0.05
0.25 0.0 -0.05
0.2625 0.0 -0.05
0.275 0.0 -0.05
0.2875 0.0 -0.05
0.3 0.0 -0.05
0.3125 0.0 -0.05
0.325 0.0 -0.05
0.3375 0.0 -0.05
0.35 0.0 -0.05
0.3625 0.0 -0.05
0.375 0.0 -0.05
0.3875 0.0 -0.05
0.4 0.0 -0.05
0.4125 0.0 -0.05
0.425 0.0 -0.05
0.4375 0.0 -0.05
0.45 0.0 -0.05
0.4625 0.0 -0.05
0.475 0.0 -0.05
0.4875 0.0 -0.05
0.5 0.0 -0.05
0.5125 0.0 -0.05
0.525 0.0 -0.05
0.5375 0.0 -0.05
0.55 0.0 -0.05
0.5625 0.0 -0.05
0.575 0.0 -0.05
0.5875 0.0 -0.05
0.6 0.0 -0.05
0.0 0.0125 -0.05
0.0125 0.0125 -0.05
0.025 0.0125 -0.05
0.0375 0.0125 -0.05
0.05 0.0125 -0.05
0.0625 0.0125 -0.05
0.075 0.0125 -0.05
0.0875 0.0125 -0.05
0.1 0.0125 -0.05
0.1125 0.0125 -0.05
0.125 0.0125 -0.05
0.1375 0.0125 -0.05
0.15 0.0125 -0.05
0.1625 0.0125 -0.05
0.175 0.0125 -0.05
0.1875 0.0125 -0.05
0.2 0.0125 -0.05
0.2125 0.0125 -0.05
0.225 0.0125 -0.05
0.2375 0.0125 -0.05
0.25 0.0125 -0.05
0.2625 0.0125 -0.05
0.275 0.0125 -0.05
0.2875 0.0125 -0.05
0.3 0.0125 -0.05
0.3125 0.0125 -0.05
0.325 0.0125 -0.05
0.3375 0.0125 -0.05
0.35 0.0125 -0.05
0.3625 0.0125 -0.05
0.375 0.0125 -0.05
0.3875 0.0125 -0.05
0.4 0.0125 -0.05
0.4125 0.0125 -0.05
0.425 0.0125 -0.05
0.4375 0.0125 -0.05
0.45 0.0125 -0.05
0.4625 0.0125 -0.05
0.475 0.0125 -0.05
0.4875 0.0125 -0.05
0.5 0.0125 -0.05
0.5125 0.0125 -0.05
0.525 0.0125 -0.05
0.5375 0.0125 -0.05
0.55 0.0125 -0.05
0.5625 0.0125 -0.05
0.575 0.0125 -0.05
0.5875 0.0125 -0.05
0.6 0.0125 -0.05
0.0 0.025 -0.05
0.0125 0.025 -0.05
0.025 0.025 -0.05
0.0375 0.025 -0.05
0.05 0.025 -0.05
0.0625 0.025 -0.05
0.075 0.025 -0.05
0.0875 0.025 -0.05
0.1 0.025 -0.05
0.1125 0.025 -0.05
0.125 0.025 -0.05
0.1375 0.025 -0.05
0.15 0.025 -0.05
0.1625 0.025 -0.05
0.175 0.025 -0.05
0.1875 0.025 -0.05
0.2 0.025 -0.05
0.2125 0.025 -0.05
0.225 0.025 -0.05
0.2375 0.025 -0.05
0.25 0.025 -0.05
0.2625 0.025 -0.05
0.275 0.025 -0.05
0.2875 0.025 -0.05
0.3 0.025 -0.05
0.3125 0.025 -0.05
0.325 0.025 -0.05
0.3375 0.025 -0.05
0.35 0.025 -0.05
0.3625 0.025 -0.05
0.375 0.025 -0.05
0.3875 0.025 -0.05
0.4 0.025 -0.05
0.4125 0.025 -0.05
0.425 0.025 -0.05
0.4375 0.025 -0.05
0.45 0.025 -0.05
0.4625 0.025 -0.05
0.475 0.025 -0.05
0.4875 0.025 -0.05
0.5 0.025 -0.05
0.5125 0.025 -0.05
0.525 0.025 -0.05
0.5375 0.025 -0.05
0.55 0.025 -0.05
0.5625 0.025 -0.05
0.575 0.025 -0.05
0.5875 0.025 -0.05
0.6 0.025 -0.05
0.0 0.0375 -0.05
0.0125 0.0375 -0.05
0.025 0.0375 -0.05
0.0375 0.0375 -0.05
0.05 0.0375 -0.05
0.0625 0.0375 -0.05
0.075 0.0375 -0.05
0.0875 0.0375 -0.05
0.1 0.0375 -0.05
0.1125 0.0375 -0.05
0.125 0.0375 -0.05
0.1375 0.0375 -0.05
0.15 0.0375 -0.05
0.1625 0.0375 -0.05
0.175 0.0375 -0.05
0.1875 0.0375 -0.05
0.2 0.0375 -0.05
0.2125 0.0375 -0.05
0.225 0.0375 -0.05
0.2375 0.0375 -0.05
0.25 0.0375 -0.05
0.2625 0.0375 -0.05
0.275 0.0375 -0.05
0.2875 0.0375 -0.05
0.3 0.0375 -0.05
0.3125 0.0375 -0.05
0.325 0.0375 -0.05
0.3375 0.0375 -0.05
0.35 0.0375 -0.05
0.3625 0.0375 -0.05
0.375 0.0375 -0.05
0.3875 0.0375 -0.05
0.4 0.0375 -0.05
0.4125 0.0375 -0.05
0.425 0.0375 -0.05
0.4375 0.0375 -0.05
0.45 0.0375 -0.05
0.4625 0.0375 -0.05
0.475 0.0375 -0.05
0.4875 0.0375 -0.05
0.5 0.0375 -0.05
0.5125 0.0375 -0.05
0.525 0.0375 -0.05
0.5375 0.0375 -0.05
0.55 0.0375 -0.05
0.5625 0.0375 -0.05
0.575 0.0375 -0.05
0.5875 0.0375 -0.05
0.6 0.0375 -0.05
0.0 0.05 -0.05
0.0125 0.05 -0.05
0.025 0.05 -0.05
0.0375 0.05 -0.05
0.05 0.05 -0.05
0.0625 0.05 -0.05
0.075 0.05 -0.05
0.0875 0.05 -0.05
0.1 0.05 -0.05
0.1125 0.05 -0.05
0.125 0.05 -0.05
0.1375 0.05 -0.05
0.15 0.05 -0.05
0.1625 0.05 -0.05
0.175 0.05 -0.05
0.1875 0.05 -0.05
0.2 0.05 -0.05
0.2125 0.05 -0.05
0.225 0.05 -0.05
0.2375 0.05 -0.05
0.25 0.05 -0.05
0.2625 0.05 -0.05
0.275 0.05 -0.05
0.2875 0.05 -0.05
0.3 0.05 -0.05
0.3125 0.05 -0.05
0.325 0.05 -0.05
0.3375 0.05 -0.05
0.35 0.05 -0.05
0.3625 0.05 -0.05
0.375 0.05 -0.05
0.3875 0.05 -0.05
0.4 0.05 -0.05
0.4125 0.05 -0.05
0.425 0.05 -0.05
0.4375 0.05 -0.05
0.45 0.05 -0.05
0.4625 0.05 -0.05
0.475 0.05 -0.05
0.4875 0.05 -0.05
0.5 0.05 -0.05
0.5125 0.05 -0.05
0.525 0.05 -0.05
0.5375 0.05 -0.05
0.55 0.05 -0.05
0.5625 0.05 -0.05
0.575 0.05 -0.05
0.5875 0.05 -0.05
0.6 0.05 -0.05
0.0 0.0625 -0.05
0.0125 0.0625 -0.05
0.025 0.0625 -0.05
0.0375 0.0625 -0.05
0.05 0.0625 -0.05
0.0625 0.0625 -0.05
0.075 0.0625 -0.05
0.0875 0.0625 -0.05
0.1 0.0625 -0.05
0.1125 0.0625 -0.05
0.125 0.0625 -0.05
0.1375 0.0625 -0.05
0.15 0.0625 -0.05
0.1625 0.0625 -0.05
0.175 0.0625 -0.05
0.1875 0.0625 -0.05
0.2 0.0625 -0.05
0.2125 0.0625 -0.05
0.225 0.0625 -0.05
0.2375 0.0625 -0.05
0.25 0.0625 -0.05
0.2625 0.0625 -0.05
0.275 0.0625 -0.05
0.2875 0.0625 -0.05
0.3 0.0625 -0.05
0.3125 0.0625 -0.05
0.325 0.0625 -0.05
0.3375 0.0625 -0.05
0.35 0.0625 -0.05
0.3625 0.0625 -0.05
0.375 0.0625 -0.05
0.3875 0.0625 -0.05
0.4 0.0625 -0.05
0.4125 0.0625 -0.05
0.425 0.0625 -0.05
0.4375 0.0625 -0.05
0.45 0.0625 -0.05
0.4625 0.0625 -0.05
0.475 0.0625 -0.05
0.4875 0.0625 -0.05
0.5 0.0625 -0.05
0.5125 0.0625 -0.05
0.525 0.0625 -0.05
0.5375 0.0625 -0.05
0.55 0.0625 -0.05
0.5625 0.0625 -0.05
0.575 0.0625 -0.05
0.5875 0.0625 -0.05
0.6 0.0625 -0.05
0.0 0.075 -0.05
0.0125 0.075 -0.05
0.025 0.075 -0.05
0.0375 0.075 -0.05
0.05 0.075 -0.05
0.0625 0.075 -0.05
0.075 0.075 -0.05
0.0875 0.075 -0.05
0.1 0.075 -0.05
0.1125 0.075 -0.05
0.125 0.075 -0.05
0.1375 0.075 -0.05
0.15 0.075 -0.05
0.1625 0.075 -0.05
0.175 0.075 -0.05
0.1875 0.075 -0.05
0.2 0.075 -0.05
0.2125 0.075 -0.05
0.225 0.075 -0.05
0.2375 0.075 -0.05
0.25 0.075 -0.05
0.2625 0.075 -0.05
0.275 0.075 -0.05
0.2875 0.075 -0.05
0.3 0.075 -0.05
0.3125 0.075 -0.05
0.325 0.075 -0.05
0.3375 0.075 -0.05
0.35 0.075 -0.05
0.3625 0.075 -0.05
0.375 0.075 -0.05
0.3875 0.075 -0.05
0.4 0.075 -0.05
0.4125 0.075 -0.05
0.425 0.075 -0.05
0.4375 0.075 -0.05
0.45 0.075 -0.05
0.4625 0.075 -0.05
0.475 0.075 -0.05
0.4875 0.075 -0.05
0.5 0.075 -0.05
0.5125 0.075 -0.05
0.525 0.075 -0.05
0.5375 0.075 -0.05
0.55 0.075 -0.05
0.5625 0.075 -0.05
0.575 0.075 -0.05
0.5875 0.075 -0.05
0.6 0.075 -0.05
0.0 0.0875 -0.05
0.0125 0.0875 -0.05
0.025 0.0875 -0.05
0.0375 0.0875 -0.05
0.05 0.0875 -0.05
0.0625 0.0875 -0.05
0.075 0.0875 -0.05
0.0875 0.0875 -0.05
0.1 0.0875 -0.05
0.1125 0.0875 -0.05
0.125 0.0875 -0.05
0.1375 0.0875 -0.05
0.15 0.0875 -0.05
0.1625 0.0875 -0.05
0.175 0.0875 -0.05
0.1875 0.0875 -0.05
0.2 0.0875 -0.05
0.2125 0.0875 -0.05
0.225 0.0875 -0.05
0.2375 0.0875 -0.05
0.25 0.0875 -0.05
0.2625 0.0875 -0.05
0.275 0.0875 -0.05
0.2875 0.0875 -0.05
0.3 0.0875 -0.05
0.3125 0.0875 -0.05
0.325 0.0875 -0.05
0.3375 0.0875 -0.05
0.35 0.0875 -0.05
0.3625 0.0875 -0.05
0.375 0.0875 -0.05
0.3875 0.0875 -0.05
0.4 0.0875 -0.05
0.4125 0.0875 -0.05
0.425 0.0875 -0.05
0.4375 0.0875 -0.05
0.45 0.0875 -0.05
0.4625 0.0875 -0.05
0.475 0.0875 -0.05
0.4875 0.0875 -0.05
0.5 0.0875 -0.05
0.5125 0.0875 -0.05
0.525 0.0875 -0.05
0.5375 0.0875 -0.05
0.55 0.0875 -0.05
0.5625 0.0875 -0.05
0.575 0.0875 -0.05
0.5875 0.0875 -0.05
0.6 0.0875 -0.05
0.0 0.1 -0.05
0.0125 0.1 -0.05
0.025 0.1 -0.05
0.0375 0.1 -0.05
0.05 0.1 -0.05
0.0625 0.1 -0.05
0.075 0.1 -0.05
0.0875 0.1 -0.05
0.1 0.1 -0.05
0.1125 0.1 -0.05
0.125 0.1 -0.05
0.1375 0.1 -0.05
0.15 0.1 -0.05
0.1625 0.1 -0.05
0.175 0.1 -0.05
0.1875 0.1 -0.05
0.2 0.1 -0.05
0.2125 0.1 -0.05
0.225 0.1 -0.05
0.2375 0.1 -0.05
0.25 0.1 -0.05
0.2625 0.1 -0.05
0.275 0.1 -0.05
0.2875 0.1 -0.05
0.3 0.1 -0.05
0.3125 0.1 -0.05
0.325 0.1 -0.05
0.3375 0.1 -0.05
0.35 0.1 -0.05
0.3625 0.1 -0.05
0.375 0.1 -0.05
0.3875 0.1 -0.05
0.4 0.1 -0.05
0.4125 0.1 -0.05
0.425 0.1 -0.05
0.4375 0.1 -0.05
0.45 0.1 -0.05
0.4625 0.1 -0.05
0.475 0.1 -0.05
0.4875 0.1 -0.05
0.5 0.1 -0.05
0.5125 0.1 -0.05
0.525 0.1 -0.05
0.5375 0.1 -0.05
0.55 0.1 -0.05
0.5625 0.1 -0.05
0.575 0.1 -0.05
0.5875 0.1 -0.05
0.6 0.1 -0.05
0.0 0.1125 -0.05
0.0125 0.1125 -0.05
0.025 0.1125 -0.05
0.0375 0.1125 -0.05
0.05 0.1125 -0.05
0.0625 0.1125 -0.05
0.075 0.1125 -0.05
0.0875 0.1125 -0.05
0.1 0.1125 -0.05
0.1125 0.1125 -0.05
0.125 0.1125 -0.05
0.1375 0.1125 -0.05
0.15 0.1125 -0.05
0.1625 0.1125 -0.05
0.175 0.1125 -0.05
0.1875 0.1125 -0.05
0.2 0.1125 -0.05
0.2125 0.1125 -0.05
0.225 0.1125 -0.05
0.2375 0.1125 -0.05
0.25 0.1125 -0.05
0.2625 0.1125 -0.05
0.275 0.1125 -0.05
0.2875 0.1125 -0.05
0.3 0.1125 -0.05
0.3125 0.1125 -0.05
0.325 0.1125 -0.05
0.3375 0.1125 -0.05
0.35 0.1125 -0.05
0.3625 0.1125 -0.05
0.375 0.1125 -0.05
0.3875 0.1125 -0.05
0.4 0.1125 -0.05
0.4125 0.1125 -0.05
0.425 0.1125 -0.05
0.4375 0.1125 -0.05
0.45 0.1125 -0.05
0.4625 0.1125 -0.05
0.475 0.1125 -0.05
0.4875 0.1125 -0.05
0.5 0.1125 -0.05
0.5125 0.1125 -0.05
0.525 0.1125 -0.05
0.5375 0.1125 -0.05
0.55 0.1125 -0.05
0.5625 0.1125 -0.05
0.575 0.1125 -0.05
0.5875 0.1125 -0.05
0.6 0.1125 -0.05
0.0 0.125 -0.05
0.0125 0.125 -0.05
0.025 0.125 -0.05
0.0375 0.125 -0.05
0.05 0.125 -0.05
0.0625 0.125 -0.05
0.075 0.125 -0.05
0.0875 0.125 -0.05
0.1 0.125 -0.05
0.1125 0.125 -0.05
0.125 0.125 -0.05
0.1375 0.125 -0.05
0.15 0.125 -0.05
0.1625 0.125 -0.05
0.175 0.125 -0.05
0.1875 0.125 -0.05
0.2 0.125 -0.05
0.2125 0.125 -0.05
0.225 0.125 -0.05
0.2375 0.125 -0.05
0.25 0.125 -0.05
0.2625 0.125 -0.05
0.275 0.125 -0.05
0.2875 0.125 -0.05
0.3 0.125 -0.05
0.3125 0.125 -0.05
0.325 0.125 -0.05
0.3375 0.125 -0.05
0.35 0.125 -0.05
0.3625 0.125 -0.05
0.375 0.125 -0.05
0.3875 0.125 -0.05
0.4 0.125 -0.05
0.4125 0.125 -0.05
0.425 0.125 -0.05
0.4375 0.125 -0.05
0.45 0.125 -0.05
0.4625 0.125 -0.05
0.475 0.125 -0.05
0.4875 0.125 -0.05
0.5 0.125 -0.05
0.5125 0.125 -0.05
0.525 0.125 -0.05
0.5375 0.125 -0.05
0.55 0.125 -0.05
0.5625 0.125 -0.05
0.575 0.125 -0.05
0.5875 0.125 -0.05
0.6 0.125 -0.05
0.0 0.1375 -0.05
0.0125 0.1375 -0.05
0.025 0.1375 -0.05
0.0375 0.1375 -0.05
0.05 0.1375 -0.05
0.0625 0.1375 -0.05
0.075 0.1375 -0.05
0.0875 0.1375 -0.05
[...]
CELL_DATA 16128
SCALARS P float 1
LOOKUP_TABLE default
100000.00000001313
100000.00000004098
100000.00000013065
100000.00000041742
100000.00000133517
100000.00000426997
100000.00001365079
100000.00004362492
100000.000139361
100000.00044502059
100000.00142053801
100000.00453276485
100000.01445819672
100000.04610081277
100000.14694308609
100000.46820693075
100001.49133504655
100004.74852147746
100015.11383647824
100048.08202917229
100152.84633173585
100485.07330199186
101532.95195565574
104791.08971102968
114560.48007275283
141431.2007034698
203911.3104139155
318771.85249937885
482800.2754422539
666145.204680509
828396.7193763978
944662.531143238
1.0156115505536188e6
1.055846955109915e6
1.0795928571226147e6
1.095602544921771e6
1.108135421321371e6
1.1189794741769743e6
1.128799214903915e6
1.1378049893822635e6
1.1460384804994818e6
1.1534820799574205e6
1.1600973060001782e6
1.1658377794837446e6
1.1706541372303078e6
1.1744998684972357e6
1.1775680105099399e6
1.1998014442357004e6
100000.0000000129
100000.0000000406
100000.00000012969
100000.00000041437
100000.00000132508
100000.00000423701
100000.00001354369
100000.00004327661
100000.00013822956
100000.00044134424
100000.00140859821
100000.00449399542
100000.01433234442
100000.04569241713
100000.14561840984
100000.46391269645
100001.47742552415
100004.7035194535
100014.96849921632
100047.6140137066
100151.34688261409
100480.31562781095
101518.15350438494
104746.99379207694
114441.06006907372
141170.99798286406
203567.94161915005
318848.3952754821
484401.4979153475
670555.8268322493
836292.9000234108
955767.1304446766
1.0291017961176296e6
1.0709182010225307e6
1.0956976914753462e6
1.112431812872987e6
1.1255313139901655e6
1.13686423509448e6
1.1471310599014757e6
1.1565533950360771e6
1.1651706424715936e6
1.1729554721769956e6
1.1798559500166276e6
1.1858116886527273e6
1.1907627822571737e6
1.1946632169142347e6
1.1977936823570684e6
1.2204657514794762e6
100000.00000001267
100000.00000004003
100000.00000012762
100000.00000040735
100000.00000130247
100000.00000416358
100000.00001330522
100000.00004250204
100000.0001357118
100000.00043316618
100000.00138203647
100000.00440774468
100000.01405234318
100000.04478369496
100000.14267025898
100000.45435227931
100001.44644025447
100004.60317384163
100014.6438845298
100046.56561938478
100147.97014971953
100469.49537498182
101483.85759393951
104640.93585544925
114131.11168498517
140371.06595810605
201902.82396012993
316191.4712347618
481166.3595015092
667554.475377815
834223.7106696753
954819.9701572453
1.0290371681712306e6
1.0713804885427651e6
1.0964048890731966e6
1.1132053373629495e6
1.1262671692619475e6
1.1375023777038262e6
1.147635368092354e6
1.1569006051375356e6
1.1653449262609826e6
1.172946268669214e6
1.1796576508241722e6
1.185424328969007e6
1.1901930472986351e6
1.1939292366187198e6
1.1970670949438026e6
1.2199902457029824e6
100000.00000001246
100000.00000003907
100000.00000012436
100000.00000039708
100000.00000126878
100000.00000405425
100000.00001294994
100000.00004134745
100000.00013196155
100000.00042098557
100000.00134248388
100000.00427933442
100000.01363553404
100000.04343106954
100000.13828185272
100000.44011898522
100001.40029303466
100004.45362395192
100014.15953288734
100044.99834909207
100142.90667719324
100453.19016832067
101431.76732594163
104477.8038181535
113644.67827317047
139075.6379522374
199079.87316933056
311389.80305009265
474758.1805944593
660695.5473032877
828138.6661687179
950065.459121219
1.0254545808354048e6
1.0685384534415237e6
1.09393282326824e6
1.110872905025385e6
1.1239517010202245e6
1.1351448927096827e6
1.145211255171953e6
1.154403689349749e6
1.1627795151848327e6
1.1703231270790196e6
1.1769914636512958e6
1.182731167415231e6
1.1874869982309379e6
1.1912253955222727e6
1.1945523609298635e6
1.2179198859854569e6
100000.00000001199
100000.00000003782
100000.0000001202
100000.00000038357
100000.00000122521
100000.00000391253
100000.00001248915
100000.00003985089
100000.00012710273
100000.00040521102
100000.00129128007
100000.00411315284
100000.01309627944
100000.04168148577
100000.13260636397
100000.42171145008
100001.34060244975
100004.26010505827
100013.53230597079
100042.96625490939
100136.32892471256
100431.94808998556
101363.61866197424
104263.05614067856
112998.39733190578
137330.84752112528
195211.4701215863
304693.613455047
465678.90056726005
650838.8748717455
819280.6264829519
943061.3834188668
1.0201166106728748e6
1.0642596315483511e6
1.090184818292946e6
1.1073313524440988e6
1.120449160226117e6
1.1316047975850669e6
1.1416041109533205e6
1.1507236529483546e6
1.1590328777394618e6
1.1665224929832993e6
1.1731521382581682e6
1.1788680617512392e6
1.1836119847452857e6
1.187357100798325e6
1.1909084556586207e6
1.2148504933303662e6
100000.00000001151
100000.00000003623
100000.0000001153
100000.00000036736
100000.00000117265
100000.00000374179
100000.0000119353
100000.00003805364
100000.00012127007
100000.00038628583
100000.00122988167
100000.00391398859
100000.01245031
100000.0395865853
100000.12581321465
100000.39968513597
100001.2691885499
100004.0285788045
100012.78173513527
100040.53339507554
100128.44746087526
100406.46317126308
101281.69733253245
104004.10174496722
112214.86092136113
135195.08328997355
190411.58053707975
296268.98934769724
454122.0838935059
638183.6984221236
807857.2568715366
934043.1371840985
1.0132942959663662e6
1.0588388771423905e6
1.0854602372798985e6
1.1028682223038329e6
1.1160243056054425e6
1.127117139601893e6
1.1370147295925464e6
1.146023913158469e6
1.1542290630583062e6
1.1616284108800862e6
1.1681850316436982e6
1.1738457904484693e6
1.1785518639919376e6
1.1822920689951384e6
1.1860912034696073e6
1.21075094784432e6
100000.00000001099
100000.00000003455
100000.00000010959
100000.00000034897
100000.00000111245
100000.00000354672
100000.00001130265
100000.00003600145
100000.00011461564
100000.00036471033
100000.00115993666
100000.00368726502
100000.011715477
100000.03720513613
100000.11809592119
100000.37467756437
100001.18815325851
100003.76598410483
100011.93077131367
100037.77588314722
100119.51548505173
100377.57935789957
101188.80514697611
103710.0408004999
111321.67797868111
132738.70942958535
184811.1699615262
286281.2937647267
440221.1607744317
622777.256971339
793836.3497819036
922953.920212779
1.0049521973628983e6
1.0522727594935782e6
1.0797768796593514e6
1.0975080667817697e6
1.1106973463200491e6
1.121690600173042e6
1.131435787874934e6
1.1402783561084724e6
1.1483216119244108e6
1.1555737487003866e6
1.1620034974885534e6
1.1675611188034192e6
1.1721915339359308e6
1.1759092080487218e6
1.1799788427836364e6
1.2055308699511776e6
100000.0000000104
100000.00000003252
100000.00000010316
100000.00000032842
100000.00000104612
100000.00000333205
100000.00001060644
100000.00003374556
100000.0001073063
100000.00034103301
100000.00108325086
100000.00343892956
100000.01091137402
100000.03460171899
100000.10966749629
100000.34739200007
100001.0998213666
100003.4800188126
100011.00495661415
100034.77867181913
100109.81615906296
100346.24074764097
101088.07085425482
103391.0055537156
110349.5985128173
130040.99143521128
178560.35054004277
274920.45396906557
424121.3716106042
604646.2633784333
777128.2347655823
909656.9492284071
994971.6445424681
1.0444823796594182e6
1.0730873511553358e6
1.0912192286927563e6
1.1044391758508394e6
1.1152895575231847e6
1.1248191096753338e6
1.1334220721712802e6
1.1412259403322954e6
1.1482524315758098e6
1.154479485144066e6
1.1598651802069778e6
1.1643644764939048e6
1.1680301115549973e6
1.1723934286716424e6
1.199058209008329e6
100000.00000000965
100000.00000003054
100000.00000009638
100000.00000030648
100000.00000097518
100000.00000310232
100000.00000986292
100000.00003133876
100000.00009951732
100000.00031583093
100000.00100172235
100000.00317522947
100000.01005857391
100000.0318441257
100000.10075150078
100000.31856643902
100001.00663205622
100003.17875647661
100010.0310575142
100031.63064466995
100099.64495976079
100313.42872873868
100982.73251897201
103057.45398272472
109330.52401330399
127186.15247155653
171825.50161919006
262407.3801738336
406002.70205506415
583836.192974599
757633.7870390997
893984.3346794356
983197.3245551725
1.0353572141925521e6
1.0653199402015794e6
1.0839513919148103e6
1.0972052623935062e6
1.1078640184678107e6
1.117101307560598e6
1.125372272672275e6
1.1328349452583876e6
1.1395290056277462e6
1.145446310565281e6
1.150558962355688e6
1.154841217298234e6
1.1584020401519367e6
1.1630805612669266e6
1.1911498031910686e6
100000.00000000898
100000.00000002814
100000.00000008936
100000.00000028354
100000.00000090116
100000.00000286267
100000.00000908847
100000.00002883514
100000.00009142609
100000.00028968664
100000.00091726483
100000.00290245352
100000.00917775114
100000.02900036472
100000.09157180466
100000.28893840328
100000.91101726682
100002.87022432558
100009.03559668167
100028.41950863623
100089.29199088526
100280.10143251151
100875.93514079123
102719.52416545489
108295.63614692497
124259.13743216144
164784.06700477566
248993.7670294218
386089.37886758347
560428.8196119111
735263.0381154754
875751.4189739894
969447.7114426804
1.0247642263395892e6
1.0563877884466248e6
1.0756449175969672e6
1.0889447978750055e6
1.09935814535741e6
1.1082112028750388e6
1.1160339750679014e6
1.1230220643016512e6
1.1292378305081523e6
1.1346924230247792e6
1.139379885259543e6
1.1433072290941062e6
1.1466668550560584e6
1.1516730321522113e6
1.1815529232024958e6
100000.00000000815
100000.0000000259
100000.00000008213
100000.00000026022
100000.00000082544
100000.00000261834
100000.0000082993
100000.00002628767
100000.00008320512
100000.00026316552
100000.00083173129
100000.00262667435
100000.00828881485
100000.02613572744
100000.08234261701
100000.25921099634
100000.81528592273
100002.56200815362
100008.0435059361
100025.22721728023
100079.02653397771
100247.14213464309
100770.56117203727
102386.492913595
107273.75638523627
121341.39305242323
157617.91446471657
234958.5516174002
364655.04032262554
534555.3425592199
709948.9789115224
854764.7255421141
953517.5339654671
1.0125487802280838e6
1.0461908281257473e6
1.0662344280325342e6
1.0796056662983259e6
1.0897161146256265e6
1.0980759846301982e6
1.1053056644800787e6
1.1116452098045866e6
1.117183352443045e6
1.1219552639607217e6
1.1259853852759448e6
1.129331834110868e6
1.1323116148961764e6
1.137627284003919e6
1.1699139522494865e6
100000.00000000748
100000.00000002368
100000.0000000747
100000.00000023669
100000.00000074967
100000.00000237356
100000.00000751039
100000.00002374567
100000.00007501624
100000.00023679568
100000.00074684528
100000.00235351927
100000.00741013595
100000.02331019215
100000.0732597643
100000.23002358794
100000.7215254636
100002.26092221771
100007.07702352817
100022.12630661126
100069.08495944993
100215.31970679562
100669.10222557787
102066.36256275579
106290.02331995788
118506.95137427947
150505.68368936612
220601.57188800292
342025.1769433225
506408.8506872733
681662.6686268061
830830.8007308511
935179.166499936
998533.1685187784
1.034615285817912e6
1.0556506856418054e6
1.0691387742573225e6
1.0788885727311063e6
1.0866293292289693e6
1.093088356210818e6
1.0985554154574173e6
1.1031457237924933e6
1.1069197365253281e6
1.1099375197263241e6
1.112326822969967e6
1.1145905304810621e6
1.1201090947640885e6
1.1557147401921523e6
100000.00000000677
100000.00000002148
100000.0000000675
100000.00000021342
100000.00000067489
100000.00000213287
100000.00000673588
100000.00002125392
100000.0000670051
100000.00021105015
100000.00066414446
100000.00208798115
100000.00655792272
100000.02057635468
100000.06449383836
100000.20192917692
100000.63152731783
100001.9727649884
100006.15489845326
100019.17732238726
100059.66247708349
100185.26234254595
100573.57530190171
101765.58825748296
105364.95361230434
115819.11595345366
143614.58020330555
206234.32035140623
318576.2914728533
476256.07300860423
650431.0248827337
803768.4673669966
914185.3972011135
982514.4958784821
1.0215318695923609e6
1.0438215301908903e6
1.0575023979257052e6
1.0668404858171095e6
1.073822751416425e6
1.0793003229965642e6
1.0836143876872396e6
1.0869000731831414e6
1.0892289858880104e6
1.090694157029386e6
1.091503324462708e6
1.092409593931429e6
1.0977818535356615e6
1.1381128423257836e6
100000.00000000608
100000.00000001915
100000.00000006042
100000.00000019082
100000.00000060239
100000.00000189983
100000.00000598723
100000.00001885126
100000.00005929726
100000.00018633484
100000.00058493763
100000.00183428141
100000.00574577515
100000.01797798245
100000.05618553123
100000.17537942479
100000.54673921491
100001.70216862988
100005.29192096315
100016.42737643697
100050.90876434927
100157.44445769994
100485.48298289867
101488.94676654467
104513.92153188569
113328.02998179058
137092.26041941464
192167.78121481588
294730.6542306929
444447.0391956542
616357.0608400073
773425.7304403811
890275.1010649583
964262.8125181729
1.0067928939794741e6
1.0306717750250885e6
1.0446663448125717e6
1.0535603210347889e6
1.0596405454899885e6
1.0638984910874206e6
1.066722005173241e6
1.0682445834516787e6
1.068522592395237e6
1.06763696387706e6
1.0658437508079063e6
1.0641864300503295e6
1.0684474139445783e6
1.1154732646082884e6
100000.00000000563
100000.00000001711
100000.00000005381
100000.00000016931
100000.0000005331
100000.00000167747
100000.00000527495
100000.0000165701
100000.00005199567
100000.00016297986
100000.00051028036
100000.00159578884
100000.00498442976
100000.01554922793
100000.04844323553
100000.150717469
100000.46824421431
100001.45253998817
100004.49876533184
100013.90976356268
100042.92717740507
100132.18561767625
100405.81367508597
101239.5366103585
103747.05365404463
111069.33261741242
131059.6379269274
178697.76984641256
270945.53563111665
411420.6120650739
579641.3501350025
739701.9880346912
863183.2427664055
943520.3279163816
990228.3401899249
1.0161215005678822e6
1.0306150756649971e6
1.039069706205617e6
1.044117961821011e6
1.0469076759205537e6
1.0478626276949714e6
1.0470789676025662e6
1.0445218442849027e6
1.0401557765509704e6
1.0341550474383574e6
1.0277589378116339e6
1.0285076324378939e6
1.083834814909395e6
100000.0000000049
100000.00000001512
100000.00000004742
100000.00000014884
100000.00000046771
100000.0000014685
100000.00000460682
100000.0000144352
100000.00004517993
100000.00014123572
100000.00044096344
100000.0013749918
100000.00428168917
100000.01331446595
100000.04134276624
100000.12817792143
100000.39676400292
100001.22608326853
100003.78210655012
100011.64449315368
100035.77700410543
100109.65955189435
100335.07530042206
101018.8895095549
103069.49653631294
109063.9879611245
125605.51503532848
166088.81378820233
247696.1791478183
377703.48209058546
540602.5383077272
702575.5555069676
832656.6983677172
920002.7752167684
971640.8304407821
1.000081784318327e6
1.015348035169666e6
1.0234310415825944e6
1.0273589085448595e6
1.0284591388050173e6
1.0271771194301619e6
1.0235067072791939e6
1.0171939758996266e6
1.0078625163200864e6
995248.5991629098
980295.0538520189
971680.653054952
1.0289418506486443e6
100000.00000000425
100000.00000001332
100000.00000004139
100000.00000012977
100000.0000004069
100000.00000127473
100000.00000398832
100000.0000124645
100000.00003890523
100000.00012127458
100000.00037751839
100000.00117352002
100000.00364251586
100000.0112886804
100000.03492890883
100000.10789295612
100000.3326823869
100001.02388944126
100003.14495651482
100009.63953952878
100029.4780614664
100089.91080852471
100273.35407003036
100827.16621632897
102481.98315760524
107319.22281898992
120783.82694136456
154558.2941437195
225452.54093652955
343900.1674025343
499693.7111901579
662135.5402316033
798477.3535518367
893404.445190208
950799.7513507766
982446.6977493622
998874.4418996644
1.0067476251672286e6
1.0095517162843432e6
1.0088271341159513e6
1.005034035875651e6
997986.567654911
986998.5371561553
970774.7958578374
946965.4930064796
911075.1029103887
853871.2300328283
749501.6293274647
100000.00000000368
100000.00000001147
100000.00000003599
100000.00000011231
100000.0000003511
100000.00000109688
100000.00000342335
100000.00001066907
100000.00003320505
100000.00010319511
100000.00032023409
100000.00099220623
100000.00306925773
100000.00947828773
100000.02921840547
100000.08990307659
100000.27608397015
100000.84607461271
100002.58715707553
100007.89259137856
100024.01687193716
100072.8763980364
100220.38925618761
100663.4064331779
101981.60369911106
105830.36884721732
116613.94972396675
144263.10697783227
204650.98133579167
310672.0030373164
457510.53265221545
618615.710595233
760493.5950358158
863409.02242808
927435.4853897102
963081.0258628877
981200.9956446802
989155.0146009753
990961.6425815597
988442.460314161
982117.7005225652
971675.4876813801
956111.9991079012
933570.0400409861
900833.3751438652
852348.2518204397
778680.9010396646
663569.7763373179
100000.00000000304
100000.00000000978
100000.00000003082
100000.00000009639
100000.0000003005
100000.0000009362
100000.00000291344
100000.00000905343
100000.00002809188
100000.00008702942
100000.00026918272
100000.00083117845
100000.0025619725
100000.00788227489
100000.0242039404
100000.07417103882
100000.22680270129
100000.69194892416
100002.10596625712
100006.39308111924
100019.35366643612
100058.40985114861
100175.65516053863
100525.80283995313
101562.68006350668
104583.30563219241
113084.0189689726
135291.24275344698
185663.56421434373
278704.2041941233
414786.57641265757
572426.2349994743
718660.4066768861
829708.9306025493
901235.6168494954
941803.0741118718
962306.4953768757
970788.0494233681
971880.6965131034
967785.189356818
959179.6113531468
945761.9065659058
926455.9098580506
899348.2756036125
861420.5797208706
808190.7623675064
733677.0412106978
631536.8753753126
100000.00000000276
100000.00000000832
100000.00000002625
100000.0000000819
100000.00000025495
100000.00000079247
100000.00000245874
100000.00000761736
100000.00002356104
100000.00007275223
100000.00022425257
100000.00068997247
100000.00211881395
100000.00649352443
100000.01985868624
100000.06059743793
100000.18447519836
100000.56019864924
100001.69667884747
100005.12429520783
100015.42954254568
100046.30542397176
100138.44258273643
100411.97271866673
101217.6505745472
103557.16424942146
110156.66706033981
127660.17799171511
168769.12910631363
248661.9488405752
372371.5839934702
524177.28368791635
673086.6273451571
792036.4553680096
871847.492694296
918367.6619940185
942113.7259908353
951737.6981896205
952560.7216848802
947274.1720195882
936835.2230618774
921099.6223600003
899132.0855648133
869287.3497386917
829189.1210721359
775801.9591705998
706005.0396819608
618291.6286090644
100000.00000000244
100000.00000000726
100000.00000002234
100000.00000006931
100000.00000021467
100000.00000066536
100000.0000020579
100000.00000635553
100000.00001959296
100000.00006029214
100000.00018518356
100000.00056765169
100000.00173644231
100000.005300209
100000.01614102098
100000.049036627
100000.14859438983
100000.44906658227
100001.35323173206
100004.06540082446
100012.17323325064
100036.3206468735
100107.93375588175
100319.20634481516
100937.88848634264
102726.97644462039
107776.18501272616
121322.77116082715
154131.33311725373
221138.9744081449
331189.84130255744
474686.93452813034
624085.1652710687
750209.1532735582
838892.2290101135
892454.0384210224
920462.6005672044
932014.5042592441
933164.0924569106
927202.8870558734
915488.9773831308
898162.2834248586
874566.8295175388
843464.8077417539
803185.5022794983
751892.0226182776
688235.1584208779
612657.9931831833
100000.00000000198
100000.00000000613
100000.00000001877
100000.00000005787
100000.00000017934
100000.00000055402
100000.0000017085
100000.00000525887
100000.00001615682
100000.00004954227
100000.00015160347
100000.000462931
100000.00141043343
100000.00428715575
100000.01299908131
100000.03931188212
100000.11855989961
100000.35651905679
100001.06875610402
100003.193266583
100009.50709287681
100028.19595333713
100083.26663504093
100244.67807850071
100714.40095031058
102066.02604341698
105875.97723636635
116179.72194775174
141788.73207722142
196605.0817568897
292178.7092430743
424965.3753328523
572218.3700430224