# vtk DataFile Version 2.0
JuliaCFD
ASCII
DATASET UNSTRUCTURED_GRID

POINTS 32898 float
0.0 0.0 -0.05
0.0125 0.0 -0.05
0.025 0.0 -0.05
0.0375 0.0 -0.05
0.05 0.0 -0.05
0.0625 0.0 -0.05
0.075 0.0 -0.05
0.0875 0.0 -0.05
0.1 0.0 -0.05
0.1125 0.0 -0.05
0.125 0.0 -0.05
0.1375 0.0 -0.05
0.15 0.0 -0.05
0.1625 0.0 -0.05
0.175 0.0 -0.05
0.1875 0.0 -0.05
0.2 0.0 -0.05
0.2125 0.0 -0.05
0.225 0.0 -0.05
0.2375 0.0 -0.05
0.25 0.0 -0.05
0.2625 0.0 -0.05
0.275 0.0 -0.05
0.2875 0.0 -0.05
0.3 0.0 -0.05
0.3125 0.0 -0.05
0.325 0.0 -0.05
0.3375 0.0 -0.05
0.35 0.0 -0.05
0.3625 0.0 -0.05
0.375 0.0 -0.05
0.3875 0.0 -0.05
0.4 0.0 -0.05
0.4125 0.0 -0.05
0.425 0.0 -0.05
0.4375 0.0 -0.05
0.45 0.0 -0.05
0.4625 0.0 -0.05
0.475 0.0 -0.05
0.4875 0.0 -0.05
0.5 0.0 -0.05
0.5125 0.0 -0.05
0.525 0.0 -0.05
0.5375 0.0 -0.05
0.55 0.0 -0.05
0.5625 0.0 -0.05
0.575 0.0 -0.05
0.5875 0.0 -0.05
0.6 0.0 -0.05
0.0 0.0125 -0.05
0.0125 0.0125 -0.05
0.025 0.0125 -0.05
0.0375 0.0125 -0.05
0.05 0.0125 -0.05
0.0625 0.0125 -0.05
0.075 0.0125 -0.05
0.0875 0.0125 -0.05
0.1 0.0125 -0.05
0.1125 0.0125 -0.05
0.125 0.0125 -0.05
0.1375 0.0125 -0.05
0.15 0.0125 -0.05
0.1625 0.0125 -0.05
0.175 0.0125 -0.05
0.1875 0.0125 -0.05
0.2 0.0125 -0.05
0.2125 0.0125 -0.05
0.225 0.0125 -0.05
0.2375 0.0125 -0.05
0.25 0.0125 -0.05
0.2625 0.0125 -0.05
0.275 0.0125 -0.05
0.2875 0.0125 -0.05
0.3 0.0125 -0.05
0.3125 0.0125 -0.05
0.325 0.0125 -0.05
0.3375 0.0125 -0.05
0.35 0.0125 -0.05
0.3625 0.0125 -0.05
0.375 0.0125 -0.05
0.3875 0.0125 -0.05
0.4 0.0125 -0.05
0.4125 0.0125 -0.05
0.425 0.0125 -0.05
0.4375 0.0125 -0.05
0.45 0.0125 -0.05
0.4625 0.0125 -0.05
0.475 0.0125 -0.05
0.4875 0.0125 -0.05
0.5 0.0125 -0.05
0.5125 0.0125 -0.05
0.525 0.0125 -0.05
0.5375 0.0125 -0.05
0.55 0.0125 -0.05
0.5625 0.0125 -0.05
0.575 0.0125 -0.05
0.5875 0.0125 -0.05
0.6 0.0125 -0.05
0.0 0.025 -0.05
0.0125 0.025 -0.05
0.025 0.025 -0.05
0.0375 0.025 -0.05
0.05 0.025 -0.05
0.0625 0.025 -0.05
0.075 0.025 -0.05
0.0875 0.025 -0.05
0.1 0.025 -0.05
0.1125 0.025 -0.05
0.125 0.025 -0.05
0.1375 0.025 -0.05
0.15 0.025 -0.05
0.1625 0.025 -0.05
0.175 0.025 -0.05
0.1875 0.025 -0.05
0.2 0.025 -0.05
0.2125 0.025 -0.05
0.225 0.025 -0.05
0.2375 0.025 -0.05
0.25 0.025 -0.05
0.2625 0.025 -0.05
0.275 0.025 -0.05
0.2875 0.025 -0.05
0.3 0.025 -0.05
0.3125 0.025 -0.05
0.325 0.025 -0.05
0.3375 0.025 -0.05
0.35 0.025 -0.05
0.3625 0.025 -0.05
0.375 0.025 -0.05
0.3875 0.025 -0.05
0.4 0.025 -0.05
0.4125 0.025 -0.05
0.425 0.025 -0.05
0.4375 0.025 -0.05
0.45 0.025 -0.05
0.4625 0.025 -0.05
0.475 0.025 -0.05
0.4875 0.025 -0.05
0.5 0.025 -0.05
0.5125 0.025 -0.05
0.525 0.025 -0.05
0.5375 0.025 -0.05
0.55 0.025 -0.05
0.5625 0.025 -0.05
0.575 0.025 -0.05
0.5875 0.025 -0.05
0.6 0.025 -0.05
0.0 0.0375 -0.05
0.0125 0.0375 -0.05
0.025 0.0375 -0.05
0.0375 0.0375 -0.05
0.05 0.0375 -0.05
0.0625 0.0375 -0.05
0.075 0.0375 -0.05
0.0875 0.0375 -0.05
0.1 0.0375 -0.05
0.1125 0.0375 -0.05
0.125 0.0375 -0.05
0.1375 0.0375 -0.05
0.15 0.0375 -0.05
0.1625 0.0375 -0.05
0.175 0.0375 -0.05
0.1875 0.0375 -0.05
0.2 0.0375 -0.05
0.2125 0.0375 -0.05
0.225 0.0375 -0.05
0.2375 0.0375 -0.05
0.25 0.0375 -0.05
0.2625 0.0375 -0.05
0.275 0.0375 -0.05
0.2875 0.0375 -0.05
0.3 0.0375 -0.05
0.3125 0.0375 -0.05
0.325 0.0375 -0.05
0.3375 0.0375 -0.05
0.35 0.0375 -0.05
0.3625 0.0375 -0.05
0.375 0.0375 -0.05
0.3875 0.0375 -0.05
0.4 0.0375 -0.05
0.4125 0.0375 -0.05
0.425 0.0375 -0.05
0.4375 0.0375 -0.05
0.45 0.0375 -0.05
0.4625 0.0375 -0.05
0.475 0.0375 -0.05
0.4875 0.0375 -0.05
0.5 0.0375 -0.05
0.5125 0.0375 -0.05
0.525 0.0375 -0.05
0.5375 0.0375 -0.05
0.55 0.0375 -0.05
0.5625 0.0375 -0.05
0.575 0.0375 -0.05
0.5875 0.0375 -0.05
0.6 0.0375 -0.05
0.0 0.05 -0.05
0.0125 0.05 -0.05
0.025 0.05 -0.05
0.0375 0.05 -0.05
0.05 0.05 -0.05
0.0625 0.05 -0.05
0.075 0.05 -0.05
0.0875 0.05 -0.05
0.1 0.05 -0.05
0.1125 0.05 -0.05
0.125 0.05 -0.05
0.1375 0.05 -0.05
0.15 0.05 -0.05
0.1625 0.05 -0.05
0.175 0.05 -0.05
0.1875 0.05 -0.05
0.2 0.05 -0.05
0.2125 0.05 -0.05
0.225 0.05 -0.05
0.2375 0.05 -0.05
0.25 0.05 -0.05
0.2625 0.05 -0.05
0.275 0.05 -0.05
0.2875 0.05 -0.05
0.3 0.05 -0.05
0.3125 0.05 -0.05
0.325 0.05 -0.05
0.3375 0.05 -0.05
0.35 0.05 -0.05
0.3625 0.05 -0.05
0.375 0.05 -0.05
0.3875 0.05 -0.05
0.4 0.05 -0.05
0.4125 0.05 -0.05
0.425 0.05 -0.05
0.4375 0.05 -0.05
0.45 0.05 -0.05
0.4625 0.05 -0.05
0.475 0.05 -0.05
0.4875 0.05 -0.05
0.5 0.05 -0.05
0.5125 0.05 -0.05
0.525 0.05 -0.05
0.5375 0.05 -0.05
0.55 0.05 -0.05
0.5625 0.05 -0.05
0.575 0.05 -0.05
0.5875 0.05 -0.05
0.6 0.05 -0.05
0.0 0.0625 -0.05
0.0125 0.0625 -0.05
0.025 0.0625 -0.05
0.0375 0.0625 -0.05
0.05 0.0625 -0.05
0.0625 0.0625 -0.05
0.075 0.0625 -0.05
0.0875 0.0625 -0.05
0.1 0.0625 -0.05
0.1125 0.0625 -0.05
0.125 0.0625 -0.05
0.1375 0.0625 -0.05
0.15 0.0625 -0.05
0.1625 0.0625 -0.05
0.175 0.0625 -0.05
0.1875 0.0625 -0.05
0.2 0.0625 -0.05
0.2125 0.0625 -0.05
0.225 0.0625 -0.05
0.2375 0.0625 -0.05
0.25 0.0625 -0.05
0.2625 0.0625 -0.05
0.275 0.0625 -0.05
0.2875 0.0625 -0.05
0.3 0.0625 -0.05
0.3125 0.0625 -0.05
0.325 0.0625 -0.05
0.3375 0.0625 -0.05
0.35 0.0625 -0.05
0.3625 0.0625 -0.05
0.375 0.0625 -0.05
0.3875 0.0625 -0.05
0.4 0.0625 -0.05
0.4125 0.0625 -0.05
0.425 0.0625 -0.05
0.4375 0.0625 -0.05
0.45 0.0625 -0.05
0.4625 0.0625 -0.05
0.475 0.0625 -0.05
0.4875 0.0625 -0.05
0.5 0.0625 -0.05
0.5125 0.0625 -0.05
0.525 0.0625 -0.05
0.5375 0.0625 -0.05
0.55 0.0625 -0.05
0.5625 0.0625 -0.05
0.575 0.0625 -0.05
0.5875 0.0625 -0.05
0.6 0.0625 -0.05
0.0 0.075 -0.05
0.0125 0.075 -0.05
0.025 0.075 -0.05
0.0375 0.075 -0.05
0.05 0.075 -0.05
0.0625 0.075 -0.05
0.075 0.075 -0.05
0.0875 0.075 -0.05
0.1 0.075 -0.05
0.1125 0.075 -0.05
0.125 0.075 -0.05
0.1375 0.075 -0.05
0.15 0.075 -0.05
0.1625 0.075 -0.05
0.175 0.075 -0.05
0.1875 0.075 -0.05
0.2 0.075 -0.05
0.2125 0.075 -0.05
0.225 0.075 -0.05
0.2375 0.075 -0.05
0.25 0.075 -0.05
0.2625 0.075 -0.05
0.275 0.075 -0.05
0.2875 0.075 -0.05
0.3 0.075 -0.05
0.3125 0.075 -0.05
0.325 0.075 -0.05
0.3375 0.075 -0.05
0.35 0.075 -0.05
0.3625 0.075 -0.05
0.375 0.075 -0.05
0.3875 0.075 -0.05
0.4 0.075 -0.05
0.4125 0.075 -0.05
0.425 0.075 -0.05
0.4375 0.075 -0.05
0.45 0.075 -0.05
0.4625 0.075 -0.05
0.475 0.075 -0.05
0.4875 0.075 -0.05
0.5 0.075 -0.05
0.5125 0.075 -0.05
0.525 0.075 -0.05
0.5375 0.075 -0.05
0.55 0.075 -0.05
0.5625 0.075 -0.05
0.575 0.075 -0.05
0.5875 0.075 -0.05
0.6 0.075 -0.05
0.0 0.0875 -0.05
0.0125 0.0875 -0.05
0.025 0.0875 -0.05
0.0375 0.0875 -0.05
0.05 0.0875 -0.05
0.0625 0.0875 -0.05
0.075 0.0875 -0.05
0.0875 0.0875 -0.05
0.1 0.0875 -0.05
0.1125 0.0875 -0.05
0.125 0.0875 -0.05
0.1375 0.0875 -0.05
0.15 0.0875 -0.05
0.1625 0.0875 -0.05
0.175 0.0875 -0.05
0.1875 0.0875 -0.05
0.2 0.0875 -0.05
0.2125 0.0875 -0.05
0.225 0.0875 -0.05
0.2375 0.0875 -0.05
0.25 0.0875 -0.05
0.2625 0.0875 -0.05
0.275 0.0875 -0.05
0.2875 0.0875 -0.05
0.3 0.0875 -0.05
0.3125 0.0875 -0.05
0.325 0.0875 -0.05
0.3375 0.0875 -0.05
0.35 0.0875 -0.05
0.3625 0.0875 -0.05
0.375 0.0875 -0.05
0.3875 0.0875 -0.05
0.4 0.0875 -0.05
0.4125 0.0875 -0.05
0.425 0.0875 -0.05
0.4375 0.0875 -0.05
0.45 0.0875 -0.05
0.4625 0.0875 -0.05
0.475 0.0875 -0.05
0.4875 0.0875 -0.05
0.5 0.0875 -0.05
0.5125 0.0875 -0.05
0.525 0.0875 -0.05
0.5375 0.0875 -0.05
0.55 0.0875 -0.05
0.5625 0.0875 -0.05
0.575 0.0875 -0.05
0.5875 0.0875 -0.05
0.6 0.0875 -0.05
0.0 0.1 -0.05
0.0125 0.1 -0.05
0.025 0.1 -0.05
0.0375 0.1 -0.05
0.05 0.1 -0.05
0.0625 0.1 -0.05
0.075 0.1 -0.05
0.0875 0.1 -0.05
0.1 0.1 -0.05
0.1125 0.1 -0.05
0.125 0.1 -0.05
0.1375 0.1 -0.05
0.15 0.1 -0.05
0.1625 0.1 -0.05
0.175 0.1 -0.05
0.1875 0.1 -0.05
0.2 0.1 -0.05
0.2125 0.1 -0.05
0.225 0.1 -0.05
0.2375 0.1 -0.05
0.25 0.1 -0.05
0.2625 0.1 -0.05
0.275 0.1 -0.05
0.2875 0.1 -0.05
0.3 0.1 -0.05
0.3125 0.1 -0.05
0.325 0.1 -0.05
0.3375 0.1 -0.05
0.35 0.1 -0.05
0.3625 0.1 -0.05
0.375 0.1 -0.05
0.3875 0.1 -0.05
0.4 0.1 -0.05
0.4125 0.1 -0.05
0.425 0.1 -0.05
0.4375 0.1 -0.05
0.45 0.1 -0.05
0.4625 0.1 -0.05
0.475 0.1 -0.05
0.4875 0.1 -0.05
0.5 0.1 -0.05
0.5125 0.1 -0.05
0.525 0.1 -0.05
0.5375 0.1 -0.05
0.55 0.1 -0.05
0.5625 0.1 -0.05
0.575 0.1 -0.05
0.5875 0.1 -0.05
0.6 0.1 -0.05
0.0 0.1125 -0.05
0.0125 0.1125 -0.05
0.025 0.1125 -0.05
0.0375 0.1125 -0.05
0.05 0.1125 -0.05
0.0625 0.1125 -0.05
0.075 0.1125 -0.05
0.0875 0.1125 -0.05
0.1 0.1125 -0.05
0.1125 0.1125 -0.05
0.125 0.1125 -0.05
0.1375 0.1125 -0.05
0.15 0.1125 -0.05
0.1625 0.1125 -0.05
0.175 0.1125 -0.05
0.1875 0.1125 -0.05
0.2 0.1125 -0.05
0.2125 0.1125 -0.05
0.225 0.1125 -0.05
0.2375 0.1125 -0.05
0.25 0.1125 -0.05
0.2625 0.1125 -0.05
0.275 0.1125 -0.05
0.2875 0.1125 -0.05
0.3 0.1125 -0.05
0.3125 0.1125 -0.05
0.325 0.1125 -0.05
0.3375 0.1125 -0.05
0.35 0.1125 -0.05
0.3625 0.1125 -0.05
0.375 0.1125 -0.05
0.3875 0.1125 -0.05
0.4 0.1125 -0.05
0.4125 0.1125 -0.05
0.425 0.1125 -0.05
0.4375 0.1125 -0.05
0.45 0.1125 -0.05
0.4625 0.1125 -0.05
0.475 0.1125 -0.05
0.4875 0.1125 -0.05
0.5 0.1125 -0.05
0.5125 0.1125 -0.05
0.525 0.1125 -0.05
0.5375 0.1125 -0.05
0.55 0.1125 -0.05
0.5625 0.1125 -0.05
0.575 0.1125 -0.05
0.5875 0.1125 -0.05
0.6 0.1125 -0.05
0.0 0.125 -0.05
0.0125 0.125 -0.05
0.025 0.125 -0.05
0.0375 0.125 -0.05
0.05 0.125 -0.05
0.0625 0.125 -0.05
0.075 0.125 -0.05
0.0875 0.125 -0.05
0.1 0.125 -0.05
0.1125 0.125 -0.05
0.125 0.125 -0.05
0.1375 0.125 -0.05
0.15 0.125 -0.05
0.1625 0.125 -0.05
0.175 0.125 -0.05
0.1875 0.125 -0.05
0.2 0.125 -0.05
0.2125 0.125 -0.05
0.225 0.125 -0.05
0.2375 0.125 -0.05
0.25 0.125 -0.05
0.2625 0.125 -0.05
0.275 0.125 -0.05
0.2875 0.125 -0.05
0.3 0.125 -0.05
0.3125 0.125 -0.05
0.325 0.125 -0.05
0.3375 0.125 -0.05
0.35 0.125 -0.05
0.3625 0.125 -0.05
0.375 0.125 -0.05
0.3875 0.125 -0.05
0.4 0.125 -0.05
0.4125 0.125 -0.05
0.425 0.125 -0.05
0.4375 0.125 -0.05
0.45 0.125 -0.05
0.4625 0.125 -0.05
0.475 0.125 -0.05
0.4875 0.125 -0.05
0.5 0.125 -0.05
0.5125 0.125 -0.05
0.525 0.125 -0.05
0.5375 0.125 -0.05
0.55 0.125 -0.05
0.5625 0.125 -0.05
0.575 0.125 -0.05
0.5875 0.125 -0.05
0.6 0.125 -0.05
0.0 0.1375 -0.05
0.0125 0.1375 -0.05
0.025 0.1375 -0.05
0.0375 0.1375 -0.05
0.05 0.1375 -0.05
0.0625 0.1375 -0.05
0.075 0.1375 -0.05
0.0875 0.1375 -0.05
[...]
CELL_DATA 16128
SCALARS P float 1
LOOKUP_TABLE default
100000.00000004434
99999.99999987692
100000.00000033466
99999.99999908141
100000.00000251298
99999.99999311607
100000.00001884447
99999.99994840735
100000.00014122235
99999.99961347708
100000.00105774382
99999.99710586198
100000.00791738807
99999.97834488108
100000.05921658836
99999.83811177239
100000.44243888177
99998.7912959309
100003.29968748752
99991.01563704858
100023.97710167861
99947.20642780382
99833.43452849463
111318.43561510065
225965.7413644436
501677.89787801565
808925.5054677257
983376.8698650643
1.0367214114782617e6
1.0537679545551636e6
1.0658040930057545e6
1.0771066642178225e6
1.0879724446211085e6
1.0983912640745884e6
1.1083482819408863e6
1.1178315069408175e6
1.1268265342529074e6
1.135314560166274e6
1.1432686547656755e6
1.1506604393999306e6
1.157439623472409e6
1.1635956076439423e6
1.1689798315054555e6
1.1738359940489721e6
1.1772397390184582e6
1.1817339293106901e6
1.1795689005971788e6
1.1935533927955257e6
100000.00000004325
99999.9999998799
100000.00000032694
99999.99999910302
100000.00000245437
99999.99999327643
100000.00001840785
99999.9999495971
100000.00013798616
99999.99962226985
100000.00103388836
99999.9971704831
100000.00774265635
99999.97881629076
100000.0579485911
99999.8415073277
100000.4334100599
99998.8150185829
100003.23866356349
99991.16630797091
100023.64161459719
99947.5970755075
99838.80031129328
110977.30836668515
224611.14613701229
500748.3282564165
811219.5511208931
989315.3560603284
1.0445691609251893e6
1.0624283889532804e6
1.074894749741996e6
1.0864754917132603e6
1.0975593227395331e6
1.1081795369642687e6
1.1183408861296491e6
1.1280386854792119e6
1.1372595323950343e6
1.145982222212524e6
1.1541753216903834e6
1.1618042735075138e6
1.1688112505597025e6
1.1751763693305969e6
1.1807413111693463e6
1.1857374700998778e6
1.189230901613069e6
1.1937634148862856e6
1.1915232495155898e6
1.205712616561392e6
100000.00000004082
99999.99999988689
100000.00000030833
99999.99999915394
100000.00000231557
99999.9999936561
100000.00001737192
99999.99995242161
100000.00013029664
99999.99964317628
100000.00097714283
99999.99732422052
100000.00732703095
99999.97993715719
100000.05493445716
99999.84958585496
100000.41183955366
99998.8723746671
100003.08682183722
99991.56606248443
100022.61078956568
99949.76961490297
99845.49822567709
110198.98060417736
220570.53118474485
493655.9368454952
804398.890909606
984769.3346378296
1.0411617519137858e6
1.0591108599231697e6
1.0714482870288405e6
1.0828721498908342e6
1.09378863785942e6
1.1042301556221675e6
1.1142008619623524e6
1.123696807518626e6
1.1327062545525685e6
1.141210276687263e6
1.1491803438179821e6
1.1565851755852853e6
1.1633715561681602e6
1.1695232751331248e6
1.1748917568419168e6
1.1797054110889153e6
1.1830630939354566e6
1.1874574838258002e6
1.185149722494907e6
1.1995308040721002e6
100000.00000003731
99999.99999989703
100000.00000028138
99999.99999922898
100000.00000211001
99999.99999421899
100000.00001583179
99999.9999566322
100000.00011879604
99999.99967455432
100000.00089163135
99999.99755696187
100000.00669444024
99999.98165398589
100000.05028238043
99999.86217100915
100000.37784851663
99998.96403981725
100002.83999183914
99992.22879835167
100020.8648729025
99953.56974289156
99856.3318886748
109035.28524900158
214269.88586630646
482720.0702075854
794796.7650439404
979995.0692146834
1.039019436807906e6
1.0575491542330375e6
1.0699784999769856e6
1.081410023383593e6
1.092309341692628e6
1.1027225216910513e6
1.1126610267987389e6
1.1221260831910386e6
1.131109909160975e6
1.1395966928202012e6
1.1475604875281944e6
1.154971675344934e6
1.161778723015858e6
1.1679637267510316e6
1.1733812637917725e6
1.1782441790624415e6
1.181674254871488e6
1.1860982486696187e6
1.1838120053842312e6
1.198567362296289e6
100000.00000003273
99999.99999990966
100000.00000024623
99999.9999993247
100000.00000184709
99999.99999494152
100000.00001384897
99999.99996207305
100000.00010387793
99999.99971543276
100000.00077969603
99999.99786323801
100000.00585708808
99999.98394133683
100000.04403974666
99999.87919250126
100000.33148175023
99999.09021514132
100002.4970742374
99993.157926158
100018.39611873803
99959.01366726898
99871.77165821628
107596.31918009381
205949.6549654273
467908.6524380419
781550.5389032636
973247.4261133577
1.0358394603283199e6
1.055040516979407e6
1.067454444599787e6
1.0787757490647503e6
1.0895459665199106e6
1.0998203612508075e6
1.109613762041024e6
1.1189302304449677e6
1.1277646831148686e6
1.1361038785277149e6
1.1439244731438896e6
1.1511989700809675e6
1.1578786876832854e6
1.1639454544420089e6
1.1692605998466117e6
1.174023306984118e6
1.1773898059011996e6
1.1817203322648213e6
1.1793650599276335e6
1.194530858568116e6
100000.00000002746
99999.99999992437
100000.00000020572
99999.99999943664
100000.00000153923
99999.99999579063
100000.0000115109
99999.9999685121
100000.00008615179
99999.99976421718
100000.00064548057
99999.99823236163
100000.00484230643
99999.98672996271
100000.0363801437
99999.90022057664
100000.2737862241
99999.24841076224
100002.06374015256
99994.3417413152
100015.2216252318
99966.14994696299
99890.75465170962
106016.71087248632
195931.39585619548
449376.36081815476
764531.098157672
964495.5769654814
1.0318975714546817e6
1.0520627613632106e6
1.064476949916863e6
1.0756663638720396e6
1.0862831882042894e6
1.0963949267950442e6
1.1060201742603832e6
1.1151663489065806e6
1.123831744494334e6
1.1320064354609172e6
1.1396704423361702e6
1.1467990507474055e6
1.1533470025954978e6
1.1592959297473233e6
1.1645141075736375e6
1.1691855478798782e6
1.1725015080482408e6
1.1767542535512378e6
1.1743295251783659e6
1.190026685753392e6
100000.00000002174
99999.99999994056
100000.00000016179
99999.99999955833
100000.00000120253
99999.99999672055
100000.0000089419
99999.99997560956
100000.00006654265
99999.99981839745
100000.00049578123
99999.99864597854
100000.00369952063
99999.98988722944
100000.02765796977
99999.92431351934
100000.20724579826
99999.4321420321
100001.55667184344
99995.7383425875
100011.43987923209
99974.85314365583
99910.98422763235
104437.49316367609
184606.8594069193
427339.4458505165
743520.3142881627
953401.9521334291
1.027007581592157e6
1.0484989586588205e6
1.060925920849886e6
1.0719414381438356e6
1.082356085488211e6
1.0922538695559443e6
1.1016568444596622e6
1.1105754055002243e6
1.1190110666707726e6
1.12695725713513e6
1.134397589131111e6
1.141310552242247e6
1.1476550108575898e6
1.1534133887424748e6
1.1584625613445372e6
1.1629734114362872e6
1.1661759839354688e6
1.1703003896313936e6
1.1677534554245337e6
1.1840913787133852e6
100000.00000001598
99999.99999995674
100000.00000011688
99999.99999968303
100000.00000085832
99999.99999767377
100000.00000630222
99999.99998292254
100000.00004627866
99999.99987456629
100000.00034004085
99999.99907793853
100000.00250106363
99999.99321334623
100000.01842404902
99999.9499562538
100000.13601560028
99999.63005436891
100001.00675514832
99997.26431820352
100007.26942728373
99984.69009614257
99929.46738913422
102989.55206951122
172432.15150675725
402101.4605761696
718315.2180696332
939600.9446518024
1.021016280555279e6
1.0443263868971085e6
1.0568121660127712e6
1.067621357122717e6
1.0777900287070693e6
1.0874261717227274e6
1.096555483661346e6
1.105191036424009e6
1.1133374025638336e6
1.1209913901515868e6
1.12814044015244e6
1.134766759831165e6
1.1408341774011985e6
1.1463272722409961e6
1.1511333127345613e6
1.1554129930399733e6
1.1584378802516505e6
1.1623841115127958e6
1.1596570044277583e6
1.1767797499545843e6
100000.00000001038
99999.99999997232
100000.0000000741
99999.99999980192
100000.00000052928
99999.99999858625
100000.00000377209
99999.99998994247
100000.00002679226
99999.99992869026
100000.00018962337
99999.9994962228
100000.00133715032
99999.9964541676
100000.00939412392
99999.97513399065
100000.06576355167
99999.82621587891
100000.45871923515
99998.79441065865
100003.05439900742
99994.86649390167
99943.52468011991
101777.01013588438
159916.2847199927
374071.50342418166
688740.978812749
922655.009220101
1.0137137036384053e6
1.0394982991165229e6
1.0521260468670938e6
1.0627000639515982e6
1.072576062289883e6
1.081897808752038e6
1.090695109680115e6
1.098983074420571e6
1.1067686801073528e6
1.1140515660492904e6
1.1208226115743981e6
1.1270676145463185e6
1.1327555429385088e6
1.1378739723814602e6
1.1423217980226008e6
1.146252872777625e6
1.1489834994141103e6
1.1526489850645598e6
1.1496318771927105e6
1.1677024641224258e6
100000.00000000538
99999.99999998616
100000.00000003605
99999.99999990739
100000.00000023772
99999.99999939458
100000.00000153173
99999.9999961574
100000.00000954032
99999.99997661625
100000.00005637734
99999.99986699916
100000.00030447182
99999.99933313497
100000.00135978601
99999.99757946485
100000.00298731116
100000.00199572455
99999.96599731882
100000.17547869642
99999.22827629872
100004.28466961093
99951.93364917091
100862.96192811389
147601.35701034343
343784.7814632662
654687.0754816557
902059.0596724314
1.0048264167290233e6
1.0339555110128304e6
1.046863103591613e6
1.0571806769587393e6
1.0667159361863045e6
1.0756667878619714e6
1.0840682042604429e6
1.091936362817006e6
1.0992794512303022e6
1.1060987420912208e6
1.1123874574462909e6
1.1181342086337018e6
1.1233128358801864e6
1.1279148508489772e6
1.1318527805444188e6
1.1352793814637314e6
1.1375615515803485e6
1.1408123933504915e6
1.1373654318203707e6
1.1566052909199134e6
100000.00000000137
99999.99999999747
100000.000000005
99999.9999999928
100000.00000000183
100000.00000004585
99999.99999973246
100000.00000113247
99999.99999577361
100000.0000147441
99999.99995068277
100000.00016029109
99999.99948973158
100000.00159907402
99999.99504981034
100000.0151749302
99999.95384996929
100000.13943246423
99999.58100001095
100001.25450061526
99996.2349207835
100011.7347652485
99955.60963874486
100261.13704123544
136031.1853102501
311918.17132035625
616152.6219366946
877249.02910284
993995.4575778806
1.0276137303121517e6
1.041018277485977e6
1.051070607845826e6
1.0602163310198823e6
1.068735932694987e6
1.0766716639359065e6
1.084039359576545e6
1.0908463781417704e6
1.0970932237503876e6
1.1027726775162867e6
1.107872997861855e6
1.112369198600741e6
1.116252742202801e6
1.1194449526620945e6
1.1220948943471322e6
1.1236176378388419e6
1.1261261971777908e6
1.1218917019432867e6
1.1424774412788493e6
99999.99999999828
100000.0000000056
99999.99999998261
100000.00000005437
99999.99999983367
100000.00000050633
99999.99999847183
100000.00000458666
99999.99998630605
100000.00004070919
99999.99987942462
100000.0003559987
99999.99895176098
100000.00307934804
99999.9909720759
100000.02642246442
99999.92278058313
100000.22539767392
99999.34273701078
100001.91532190406
99994.42042098973
100016.19722240897
99957.3249845898
99937.00661979192
125707.01569793464
279295.49918738316
573300.3665679056
847625.2749050888
980754.5926126915
1.0203499031783981e6
1.0345833372069778e6
1.0443826675123618e6
1.0530914390977765e6
1.0611166614582436e6
1.0685119690385142e6
1.0752910871531793e6
1.0814576355683098e6
1.0870077881847601e6
1.0919297428154773e6
1.0962069363294311e6
1.0998113085931311e6
1.1027316177125722e6
1.1048978476469177e6
1.1064658625345458e6
1.10691296842853e6
1.1083936469154286e6
1.1030869677170438e6
1.1254416709741494e6
99999.99999999646
100000.00000001061
99999.9999999689
100000.00000009075
99999.99999973594
100000.0000007674
99999.9999977741
100000.00000644765
99999.99998134925
100000.00005388491
99999.99984447169
100000.00044851485
99999.99870747977
100000.00372261487
99999.98928319567
100000.03084201651
99999.91125728752
100000.2553209591
99999.26540051638
100002.1136655252
99993.92557682455
100017.17663572001
99960.4453916905
99820.05479307442
117032.25054111908
246876.56906835004
526515.183935781
812595.0565121458
964509.6129264794
1.0119829696764691e6
1.0275416586687915e6
1.037134603131017e6
1.0453638810965023e6
1.052830638707401e6
1.059607540795339e6
1.0657041409317127e6
1.071116097829281e6
1.0758294101187042e6
1.0798196135372042e6
1.0830538942001967e6
1.0854843509931786e6
1.0870713413792674e6
1.0877166697991693e6
1.0875231589514718e6
1.0859505462797547e6
1.085151248083281e6
1.0771710739486234e6
1.1007222588833794e6
99999.99999999546
100000.00000001288
99999.99999996362
100000.0000001043
99999.99999970282
100000.00000084727
99999.99999758741
100000.0000068662
99999.99998046973
100000.00005552436
99999.99984220894
100000.00044826337
99999.99872687159
100000.00361518991
99999.98973534629
100000.0291438293
99999.91724878502
100000.23499844778
99999.3324999653
100001.89623568882
99994.62218784627
100014.93394578733
99967.36253682003
99825.13971987422
110254.02635717794
215723.76418789098
476460.11794860585
771638.6204971547
944523.4115090272
1.0022480163527731e6
1.0198600310525895e6
1.0293478934495535e6
1.0370655616246832e6
1.043911740687677e6
1.0499920964397748e6
1.0553103694076776e6
1.059849338690955e6
1.0635779827253036e6
1.066450237750075e6
1.068405979087734e6
1.069366772940602e6
1.069256324079997e6
1.0679466930749447e6
1.065530753362659e6
1.06153199329205e6
1.0582282789599267e6
1.0476258357790665e6
1.0740092407319285e6
99999.99999999556
100000.00000001263
99999.99999996457
100000.00000009954
99999.99999972025
100000.00000078541
99999.99999779701
100000.00000617665
99999.99998269409
100000.00004845785
99999.99986439287
100000.00037926849
99999.99893985261
100000.00296171867
99999.99173040844
100000.02307761913
99999.93563213057
100000.17944121978
99999.50002675444
100001.39199998566
99996.13601336435
100010.46028835527
99978.1736516779
99876.6213689284
105416.89117512856
186940.2754730728
424119.83202580246
724401.4835887584
919914.2249922577
990762.646067283
1.011475751530972e6
1.0210449581322325e6
1.0282377544985125e6
1.0344071561480386e6
1.0397164492444084e6
1.0441631015069976e6
1.0477109901154427e6
1.050302272183221e6
1.051853446013022e6
1.052251317077033e6
1.0513367981825776e6
1.0489134549562978e6
1.0446565071036548e6
1.0383143161473259e6
1.0288604889172994e6
1.0176896533669275e6
995373.466740903
1.013353436611335e6
99999.99999999604
100000.00000001067
99999.99999997007
100000.0000000832
99999.99999977039
100000.00000063432
99999.99999825025
100000.0000048194
99999.99998674345
100000.00003640706
99999.99990018114
100000.00027317078
99999.99925394045
100000.0020329623
99999.99447432395
100000.01497616104
99999.95954199298
100000.10888996825
99999.708202399
100000.77771451989
99997.94627720745
100005.2182587387
99990.65843685056
99925.82578032512
102348.48130991623
161574.67442030326
370818.3673109015
670811.7729656681
889678.3205920502
976986.0382773043
1.0022770017293773e6
1.0122440083152633e6
1.0189303409762535e6
1.0243781889990679e6
1.0288509096617135e6
1.0323427770102773e6
1.0347938940188887e6
1.0361114514509273e6
1.0361623494310015e6
1.0347652945322983e6
1.0316697261570289e6
1.0265551652620627e6
1.0189543697985962e6
1.0084855808819777e6
994155.0521612735
977680.4926066928
949950.1635836562
973008.612229615
99999.9999999968
100000.00000000822
99999.99999997758
100000.00000006122
99999.99999983438
100000.00000044775
99999.99999879344
100000.00000324017
99999.99999132912
100000.0000231024
99999.99993875365
100000.00016141031
99999.99957760713
100000.00109591488
99999.99718660572
100000.0071260882
99999.98226340776
100000.0431123746
99999.89868589744
100000.22594813738
99999.54269167504
100000.67723627201
100001.52371844526
99955.02833855405
100693.93002560156
140489.7573765382
318195.6961974568
611214.7637907238
852752.2783078179
960174.6173578525
992074.2008082172
1.0029502449355306e6
1.0091993384844847e6
1.0138992349890107e6
1.0174843052808783e6
1.019954929892883e6
1.021224113912242e6
1.0211549909913795e6
1.0195492275702951e6
1.0161268179779656e6
1.0104725153664798e6
1.0019738327369845e6
989600.3354575516
971773.0378364506
944803.333033658
903795.6681478028
825257.2849917728
696944.0022228053
99999.99999999785
100000.00000000563
99999.99999998501
100000.0000000391
99999.99999989675
100000.00000026956
99999.99999930021
100000.00000179851
99999.99999542463
100000.00001147849
99999.99997171042
100000.00006806396
99999.99984172633
100000.00034938568
99999.99929437554
100000.00118164413
99999.99900852851
99999.99600106291
100000.03105313906
99999.8546507045
100000.58056464927
99997.83288232145
100008.10252823844
99968.16290761353
100000.9166700176
124206.09958635636
268127.0044398721
546505.7470518484
808130.7448023257
939343.585267092
980560.0478289006
993141.8529464802
999102.4112466907
1.0030556370857364e6
1.0057225721551671e6
1.0071304555788061e6
1.0071671221285091e6
1.0056487996102885e6
1.0023127882926968e6
996776.7828686575
988468.6237295286
976524.6479966589
959511.0986518946
935205.7081116627
899068.4740186974
845171.9347527882
754077.3481783215
617703.2097404263
99999.99999999863
100000.00000000306
99999.99999999157
100000.00000002087
99999.99999994758
100000.00000012844
99999.9999996924
100000.00000071137
99999.99999843066
100000.00000318816
99999.99999450047
100000.00000563568
100000.00001203397
99999.99988698859
100000.00054276777
99999.99783382483
100000.00791312037
99999.9725561062
100000.09198765589
99999.69898140038
100000.96806238701
99996.92523918366
100009.59264433742
99975.9252941613
99832.92714095388
112758.87347952188
222572.66083547383
478228.98162797414
755049.0692188813
913249.9865220005
967256.0631159908
982748.153726917
988691.0963712748
991939.0930575619
993683.4498704631
994017.7042264211
992812.0604251986
989846.4429341553
984801.7655738918
977219.2630125284
966421.9373901185
951410.477735397
930603.8268501586
901680.7383020082
860406.2543191833
801852.4883638002
712970.8748075843
592284.7518678289
99999.9999999992
100000.00000000141
99999.99999999617
100000.00000000813
99999.99999998217
100000.00000003492
99999.99999994291
100000.00000004354
100000.00000019779
99999.9999985543
100000.00000651658
99999.99997491526
100000.00008912334
99999.99969839714
100000.00098755166
99999.99684302552
100000.00990814868
99999.9693578973
100000.0936133995
99999.71698208824
100000.84773089318
99997.48588962968
100007.2268413278
99984.9364000804
99866.1565722283
105638.16529647859
183355.71323473437
408602.3436635231
693226.4627264743
880421.1527291735
951445.335615742
971616.3224070737
977998.4227814447
980640.657020208
981488.8571235944
980769.7461907556
978355.5328589634
974002.0641023596
967354.5309198952
957911.762773998
944955.1137914984
927462.0076697039
903902.1008009949
872171.2140592306
828800.8176912859
770241.1846434098
688510.2293181979
585195.699367462
99999.99999999965
100000.0000000002
99999.99999999913
100000.00000000073
100000.00000000125
99999.99999998578
100000.00000006621
99999.99999974066
100000.00000091987
99999.99999690519
100000.00001002674
99999.99996837271
100000.00009768068
99999.99970345905
100000.00088701805
99999.99738175055
100000.0076326892
99999.97801917973
100000.062515284
99999.8245632885
100000.48489005587
99998.6874641988
100003.34765193526
99994.98620234462
99927.28864125282
101880.63204483307
151873.77330060254
340429.0686683363
623145.9149676071
839263.0065762259
932098.2084029919
959462.8495937408
967020.2860532638
969241.7949386914
969256.8461690887
967534.3002016732
963981.7679034221
958346.5734131137
950260.6474007602
939214.6569746697
924502.2484722193
905158.8288677528
879820.2019830729
846730.5558259313
803260.1274437659
747044.4616393051
673513.242651929
585046.7266969121
99999.99999999993
99999.99999999984
100000.0000000005
99999.99999999751
100000.00000000895
99999.9999999692
100000.00000009962
99999.99999968609
100000.00000096177
99999.99999710947
100000.00000853087
99999.99997522298
100000.00007084898
99999.99980055443
100000.00055217689
99999.99849952346
100000.00398828156
99999.9896894205
100000.02567605449
99999.93948922277
100000.12996383624
99999.77240796515
100000.12081713314
100002.59400410629
99963.56745645539
100317.55125569673
128775.23055957792
276866.86643015954
546317.3506921274
788287.4158774399
907811.19638218
945806.9148899249
955688.190459453
957803.0150195527
957093.130949219
954445.7337974408
949851.8410515127
943071.9837749657
933744.8895686496
921380.9486265443