# vtk DataFile Version 2.0
JuliaCFD
ASCII
DATASET UNSTRUCTURED_GRID

POINTS 32898 float
0.0 0.0 -0.05
0.0125 0.0 -0.05
0.025 0.0 -0.05
0.0375 0.0 -0.05
0.05 0.0 -0.05
0.0625 0.0 -0.05
0.075 0.0 -0.05
0.0875 0.0 -0.05
0.1 0.0 -0.05
0.1125 0.0 -0.05
0.125 0.0 -0.05
0.1375 0.0 -0.05
0.15 0.0 -0.05
0.1625 0.0 -0.05
0.175 0.0 -0.05
0.1875 0.0 -0.05
0.2 0.0 -0.05
0.2125 0.0 -0.05
0.225 0.0 -0.05
0.2375 0.0 -0.05
0.25 0.0 -0.05
0.2625 0.0 -0.05
0.275 0.0 -0.05
0.2875 0.0 -0.05
0.3 0.0 -0.05
0.3125 0.0 -0.05
0.325 0.0 -0.05
0.3375 0.0 -0.05
0.35 0.0 -0.05
0.3625 0.0 -0.05
0.375 0.0 -0.05
0.3875 0.0 -0.05
0.4 0.0 -0.05
0.4125 0.0 -0.05
0.425 0.0 -0.05
0.4375 0.0 -0.05
0.45 0.0 -0.05
0.4625 0.0 -0.05
0.475 0.0 -0.05
0.4875 0.0 -0.05
0.5 0.0 -0.05
0.5125 0.0 -0.05
0.525 0.0 -0.05
0.5375 0.0 -0.05
0.55 0.0 -0.05
0.5625 0.0 -0.05
0.575 0.0 -0.05
0.5875 0.0 -0.05
0.6 0.0 -0.05
0.0 0.0125 -0.05
0.0125 0.0125 -0.05
0.025 0.0125 -0.05
0.0375 0.0125 -0.05
0.05 0.0125 -0.05
0.0625 0.0125 -0.05
0.075 0.0125 -0.05
0.0875 0.0125 -0.05
0.1 0.0125 -0.05
0.1125 0.0125 -0.05
0.125 0.0125 -0.05
0.1375 0.0125 -0.05
0.15 0.0125 -0.05
0.1625 0.0125 -0.05
0.175 0.0125 -0.05
0.1875 0.0125 -0.05
0.2 0.0125 -0.05
0.2125 0.0125 -0.05
0.225 0.0125 -0.05
0.2375 0.0125 -0.05
0.25 0.0125 -0.05
0.2625 0.0125 -0.05
0.275 0.0125 -0.05
0.2875 0.0125 -0.05
0.3 0.0125 -0.05
0.3125 0.0125 -0.05
0.325 0.0125 -0.05
0.3375 0.0125 -0.05
0.35 0.0125 -0.05
0.3625 0.0125 -0.05
0.375 0.0125 -0.05
0.3875 0.0125 -0.05
0.4 0.0125 -0.05
0.4125 0.0125 -0.05
0.425 0.0125 -0.05
0.4375 0.0125 -0.05
0.45 0.0125 -0.05
0.4625 0.0125 -0.05
0.475 0.0125 -0.05
0.4875 0.0125 -0.05
0.5 0.0125 -0.05
0.5125 0.0125 -0.05
0.525 0.0125 -0.05
0.5375 0.0125 -0.05
0.55 0.0125 -0.05
0.5625 0.0125 -0.05
0.575 0.0125 -0.05
0.5875 0.0125 -0.05
0.6 0.0125 -0.05
0.0 0.025 -0.05
0.0125 0.025 -0.05
0.025 0.025 -0.05
0.0375 0.025 -0.05
0.05 0.025 -0.05
0.0625 0.025 -0.05
0.075 0.025 -0.05
0.0875 0.025 -0.05
0.1 0.025 -0.05
0.1125 0.025 -0.05
0.125 0.025 -0.05
0.1375 0.025 -0.05
0.15 0.025 -0.05
0.1625 0.025 -0.05
0.175 0.025 -0.05
0.1875 0.025 -0.05
0.2 0.025 -0.05
0.2125 0.025 -0.05
0.225 0.025 -0.05
0.2375 0.025 -0.05
0.25 0.025 -0.05
0.2625 0.025 -0.05
0.275 0.025 -0.05
0.2875 0.025 -0.05
0.3 0.025 -0.05
0.3125 0.025 -0.05
0.325 0.025 -0.05
0.3375 0.025 -0.05
0.35 0.025 -0.05
0.3625 0.025 -0.05
0.375 0.025 -0.05
0.3875 0.025 -0.05
0.4 0.025 -0.05
0.4125 0.025 -0.05
0.425 0.025 -0.05
0.4375 0.025 -0.05
0.45 0.025 -0.05
0.4625 0.025 -0.05
0.475 0.025 -0.05
0.4875 0.025 -0.05
0.5 0.025 -0.05
0.5125 0.025 -0.05
0.525 0.025 -0.05
0.5375 0.025 -0.05
0.55 0.025 -0.05
0.5625 0.025 -0.05
0.575 0.025 -0.05
0.5875 0.025 -0.05
0.6 0.025 -0.05
0.0 0.0375 -0.05
0.0125 0.0375 -0.05
0.025 0.0375 -0.05
0.0375 0.0375 -0.05
0.05 0.0375 -0.05
0.0625 0.0375 -0.05
0.075 0.0375 -0.05
0.0875 0.0375 -0.05
0.1 0.0375 -0.05
0.1125 0.0375 -0.05
0.125 0.0375 -0.05
0.1375 0.0375 -0.05
0.15 0.0375 -0.05
0.1625 0.0375 -0.05
0.175 0.0375 -0.05
0.1875 0.0375 -0.05
0.2 0.0375 -0.05
0.2125 0.0375 -0.05
0.225 0.0375 -0.05
0.2375 0.0375 -0.05
0.25 0.0375 -0.05
0.2625 0.0375 -0.05
0.275 0.0375 -0.05
0.2875 0.0375 -0.05
0.3 0.0375 -0.05
0.3125 0.0375 -0.05
0.325 0.0375 -0.05
0.3375 0.0375 -0.05
0.35 0.0375 -0.05
0.3625 0.0375 -0.05
0.375 0.0375 -0.05
0.3875 0.0375 -0.05
0.4 0.0375 -0.05
0.4125 0.0375 -0.05
0.425 0.0375 -0.05
0.4375 0.0375 -0.05
0.45 0.0375 -0.05
0.4625 0.0375 -0.05
0.475 0.0375 -0.05
0.4875 0.0375 -0.05
0.5 0.0375 -0.05
0.5125 0.0375 -0.05
0.525 0.0375 -0.05
0.5375 0.0375 -0.05
0.55 0.0375 -0.05
0.5625 0.0375 -0.05
0.575 0.0375 -0.05
0.5875 0.0375 -0.05
0.6 0.0375 -0.05
0.0 0.05 -0.05
0.0125 0.05 -0.05
0.025 0.05 -0.05
0.0375 0.05 -0.05
0.05 0.05 -0.05
0.0625 0.05 -0.05
0.075 0.05 -0.05
0.0875 0.05 -0.05
0.1 0.05 -0.05
0.1125 0.05 -0.05
0.125 0.05 -0.05
0.1375 0.05 -0.05
0.15 0.05 -0.05
0.1625 0.05 -0.05
0.175 0.05 -0.05
0.1875 0.05 -0.05
0.2 0.05 -0.05
0.2125 0.05 -0.05
0.225 0.05 -0.05
0.2375 0.05 -0.05
0.25 0.05 -0.05
0.2625 0.05 -0.05
0.275 0.05 -0.05
0.2875 0.05 -0.05
0.3 0.05 -0.05
0.3125 0.05 -0.05
0.325 0.05 -0.05
0.3375 0.05 -0.05
0.35 0.05 -0.05
0.3625 0.05 -0.05
0.375 0.05 -0.05
0.3875 0.05 -0.05
0.4 0.05 -0.05
0.4125 0.05 -0.05
0.425 0.05 -0.05
0.4375 0.05 -0.05
0.45 0.05 -0.05
0.4625 0.05 -0.05
0.475 0.05 -0.05
0.4875 0.05 -0.05
0.5 0.05 -0.05
0.5125 0.05 -0.05
0.525 0.05 -0.05
0.5375 0.05 -0.05
0.55 0.05 -0.05
0.5625 0.05 -0.05
0.575 0.05 -0.05
0.5875 0.05 -0.05
0.6 0.05 -0.05
0.0 0.0625 -0.05
0.0125 0.0625 -0.05
0.025 0.0625 -0.05
0.0375 0.0625 -0.05
0.05 0.0625 -0.05
0.0625 0.0625 -0.05
0.075 0.0625 -0.05
0.0875 0.0625 -0.05
0.1 0.0625 -0.05
0.1125 0.0625 -0.05
0.125 0.0625 -0.05
0.1375 0.0625 -0.05
0.15 0.0625 -0.05
0.1625 0.0625 -0.05
0.175 0.0625 -0.05
0.1875 0.0625 -0.05
0.2 0.0625 -0.05
0.2125 0.0625 -0.05
0.225 0.0625 -0.05
0.2375 0.0625 -0.05
0.25 0.0625 -0.05
0.2625 0.0625 -0.05
0.275 0.0625 -0.05
0.2875 0.0625 -0.05
0.3 0.0625 -0.05
0.3125 0.0625 -0.05
0.325 0.0625 -0.05
0.3375 0.0625 -0.05
0.35 0.0625 -0.05
0.3625 0.0625 -0.05
0.375 0.0625 -0.05
0.3875 0.0625 -0.05
0.4 0.0625 -0.05
0.4125 0.0625 -0.05
0.425 0.0625 -0.05
0.4375 0.0625 -0.05
0.45 0.0625 -0.05
0.4625 0.0625 -0.05
0.475 0.0625 -0.05
0.4875 0.0625 -0.05
0.5 0.0625 -0.05
0.5125 0.0625 -0.05
0.525 0.0625 -0.05
0.5375 0.0625 -0.05
0.55 0.0625 -0.05
0.5625 0.0625 -0.05
0.575 0.0625 -0.05
0.5875 0.0625 -0.05
0.6 0.0625 -0.05
0.0 0.075 -0.05
0.0125 0.075 -0.05
0.025 0.075 -0.05
0.0375 0.075 -0.05
0.05 0.075 -0.05
0.0625 0.075 -0.05
0.075 0.075 -0.05
0.0875 0.075 -0.05
0.1 0.075 -0.05
0.1125 0.075 -0.05
0.125 0.075 -0.05
0.1375 0.075 -0.05
0.15 0.075 -0.05
0.1625 0.075 -0.05
0.175 0.075 -0.05
0.1875 0.075 -0.05
0.2 0.075 -0.05
0.2125 0.075 -0.05
0.225 0.075 -0.05
0.2375 0.075 -0.05
0.25 0.075 -0.05
0.2625 0.075 -0.05
0.275 0.075 -0.05
0.2875 0.075 -0.05
0.3 0.075 -0.05
0.3125 0.075 -0.05
0.325 0.075 -0.05
0.3375 0.075 -0.05
0.35 0.075 -0.05
0.3625 0.075 -0.05
0.375 0.075 -0.05
0.3875 0.075 -0.05
0.4 0.075 -0.05
0.4125 0.075 -0.05
0.425 0.075 -0.05
0.4375 0.075 -0.05
0.45 0.075 -0.05
0.4625 0.075 -0.05
0.475 0.075 -0.05
0.4875 0.075 -0.05
0.5 0.075 -0.05
0.5125 0.075 -0.05
0.525 0.075 -0.05
0.5375 0.075 -0.05
0.55 0.075 -0.05
0.5625 0.075 -0.05
0.575 0.075 -0.05
0.5875 0.075 -0.05
0.6 0.075 -0.05
0.0 0.0875 -0.05
0.0125 0.0875 -0.05
0.025 0.0875 -0.05
0.0375 0.0875 -0.05
0.05 0.0875 -0.05
0.0625 0.0875 -0.05
0.075 0.0875 -0.05
0.0875 0.0875 -0.05
0.1 0.0875 -0.05
0.1125 0.0875 -0.05
0.125 0.0875 -0.05
0.1375 0.0875 -0.05
0.15 0.0875 -0.05
0.1625 0.0875 -0.05
0.175 0.0875 -0.05
0.1875 0.0875 -0.05
0.2 0.0875 -0.05
0.2125 0.0875 -0.05
0.225 0.0875 -0.05
0.2375 0.0875 -0.05
0.25 0.0875 -0.05
0.2625 0.0875 -0.05
0.275 0.0875 -0.05
0.2875 0.0875 -0.05
0.3 0.0875 -0.05
0.3125 0.0875 -0.05
0.325 0.0875 -0.05
0.3375 0.0875 -0.05
0.35 0.0875 -0.05
0.3625 0.0875 -0.05
0.375 0.0875 -0.05
0.3875 0.0875 -0.05
0.4 0.0875 -0.05
0.4125 0.0875 -0.05
0.425 0.0875 -0.05
0.4375 0.0875 -0.05
0.45 0.0875 -0.05
0.4625 0.0875 -0.05
0.475 0.0875 -0.05
0.4875 0.0875 -0.05
0.5 0.0875 -0.05
0.5125 0.0875 -0.05
0.525 0.0875 -0.05
0.5375 0.0875 -0.05
0.55 0.0875 -0.05
0.5625 0.0875 -0.05
0.575 0.0875 -0.05
0.5875 0.0875 -0.05
0.6 0.0875 -0.05
0.0 0.1 -0.05
0.0125 0.1 -0.05
0.025 0.1 -0.05
0.0375 0.1 -0.05
0.05 0.1 -0.05
0.0625 0.1 -0.05
0.075 0.1 -0.05
0.0875 0.1 -0.05
0.1 0.1 -0.05
0.1125 0.1 -0.05
0.125 0.1 -0.05
0.1375 0.1 -0.05
0.15 0.1 -0.05
0.1625 0.1 -0.05
0.175 0.1 -0.05
0.1875 0.1 -0.05
0.2 0.1 -0.05
0.2125 0.1 -0.05
0.225 0.1 -0.05
0.2375 0.1 -0.05
0.25 0.1 -0.05
0.2625 0.1 -0.05
0.275 0.1 -0.05
0.2875 0.1 -0.05
0.3 0.1 -0.05
0.3125 0.1 -0.05
0.325 0.1 -0.05
0.3375 0.1 -0.05
0.35 0.1 -0.05
0.3625 0.1 -0.05
0.375 0.1 -0.05
0.3875 0.1 -0.05
0.4 0.1 -0.05
0.4125 0.1 -0.05
0.425 0.1 -0.05
0.4375 0.1 -0.05
0.45 0.1 -0.05
0.4625 0.1 -0.05
0.475 0.1 -0.05
0.4875 0.1 -0.05
0.5 0.1 -0.05
0.5125 0.1 -0.05
0.525 0.1 -0.05
0.5375 0.1 -0.05
0.55 0.1 -0.05
0.5625 0.1 -0.05
0.575 0.1 -0.05
0.5875 0.1 -0.05
0.6 0.1 -0.05
0.0 0.1125 -0.05
0.0125 0.1125 -0.05
0.025 0.1125 -0.05
0.0375 0.1125 -0.05
0.05 0.1125 -0.05
0.0625 0.1125 -0.05
0.075 0.1125 -0.05
0.0875 0.1125 -0.05
0.1 0.1125 -0.05
0.1125 0.1125 -0.05
0.125 0.1125 -0.05
0.1375 0.1125 -0.05
0.15 0.1125 -0.05
0.1625 0.1125 -0.05
0.175 0.1125 -0.05
0.1875 0.1125 -0.05
0.2 0.1125 -0.05
0.2125 0.1125 -0.05
0.225 0.1125 -0.05
0.2375 0.1125 -0.05
0.25 0.1125 -0.05
0.2625 0.1125 -0.05
0.275 0.1125 -0.05
0.2875 0.1125 -0.05
0.3 0.1125 -0.05
0.3125 0.1125 -0.05
0.325 0.1125 -0.05
0.3375 0.1125 -0.05
0.35 0.1125 -0.05
0.3625 0.1125 -0.05
0.375 0.1125 -0.05
0.3875 0.1125 -0.05
0.4 0.1125 -0.05
0.4125 0.1125 -0.05
0.425 0.1125 -0.05
0.4375 0.1125 -0.05
0.45 0.1125 -0.05
0.4625 0.1125 -0.05
0.475 0.1125 -0.05
0.4875 0.1125 -0.05
0.5 0.1125 -0.05
0.5125 0.1125 -0.05
0.525 0.1125 -0.05
0.5375 0.1125 -0.05
0.55 0.1125 -0.05
0.5625 0.1125 -0.05
0.575 0.1125 -0.05
0.5875 0.1125 -0.05
0.6 0.1125 -0.05
0.0 0.125 -0.05
0.0125 0.125 -0.05
0.025 0.125 -0.05
0.0375 0.125 -0.05
0.05 0.125 -0.05
0.0625 0.125 -0.05
0.075 0.125 -0.05
0.0875 0.125 -0.05
0.1 0.125 -0.05
0.1125 0.125 -0.05
0.125 0.125 -0.05
0.1375 0.125 -0.05
0.15 0.125 -0.05
0.1625 0.125 -0.05
0.175 0.125 -0.05
0.1875 0.125 -0.05
0.2 0.125 -0.05
0.2125 0.125 -0.05
0.225 0.125 -0.05
0.2375 0.125 -0.05
0.25 0.125 -0.05
0.2625 0.125 -0.05
0.275 0.125 -0.05
0.2875 0.125 -0.05
0.3 0.125 -0.05
0.3125 0.125 -0.05
0.325 0.125 -0.05
0.3375 0.125 -0.05
0.35 0.125 -0.05
0.3625 0.125 -0.05
0.375 0.125 -0.05
0.3875 0.125 -0.05
0.4 0.125 -0.05
0.4125 0.125 -0.05
0.425 0.125 -0.05
0.4375 0.125 -0.05
0.45 0.125 -0.05
0.4625 0.125 -0.05
0.475 0.125 -0.05
0.4875 0.125 -0.05
0.5 0.125 -0.05
0.5125 0.125 -0.05
0.525 0.125 -0.05
0.5375 0.125 -0.05
0.55 0.125 -0.05
0.5625 0.125 -0.05
0.575 0.125 -0.05
0.5875 0.125 -0.05
0.6 0.125 -0.05
0.0 0.1375 -0.05
0.0125 0.1375 -0.05
0.025 0.1375 -0.05
0.0375 0.1375 -0.05
0.05 0.1375 -0.05
0.0625 0.1375 -0.05
0.075 0.1375 -0.05
0.0875 0.1375 -0.05
[...]
CELL_DATA 16128
SCALARS P float 1
LOOKUP_TABLE default
100000.0000000272
100000.00000008517
100000.00000026947
100000.00000085426
100000.00000271027
100000.00000859781
100000.00002726965
100000.0000864609
100000.0002740378
100000.00086826194
100000.00275006548
100000.00870743016
100000.02756098188
100000.08720875334
100000.27586004627
100000.87233371973
100002.75766379469
100008.714824913
100027.53036152432
100086.92178887546
100274.15010186323
100862.46338340778
102695.0796529446
108276.46503084853
124356.3239480663
165348.6759336897
250604.8981384739
389177.2506668716
564929.125486143
740620.9184955623
881143.3091748807
974168.2325438834
1.028658584161782e6
1.0598857729481927e6
1.0794149118744815e6
1.0935898630038442e6
1.105310058165717e6
1.1157430587873203e6
1.1253045172780568e6
1.134114232711081e6
1.1421836385420328e6
1.149485799030881e6
1.1559796432698083e6
1.161618322085301e6
1.1663527043390276e6
1.1701367516335822e6
1.1731646599684188e6
1.1953214246801955e6
100000.000000027
100000.00000008468
100000.00000026752
100000.00000084787
100000.00000268978
100000.0000085325
100000.0000270583
100000.00008577983
100000.0002718425
100000.00086118569
100000.00272725972
100000.00863394767
100000.02732428082
100000.08644656374
100000.27340690348
100000.86444322456
100002.73230748807
100008.63345463472
100027.26981355181
100086.09063426942
100271.5168585139
100854.23380365825
102670.09012320041
108205.21291916471
124180.04812464396
165032.01877398722
250371.18039889814
389803.5145226709
567655.2371635913
746500.1475082398
890389.863562299
986195.2244039759
1.0426281472439773e6
1.0751253817260158e6
1.0955092113411955e6
1.1103168891252081e6
1.1225608135648577e6
1.1334651825247498e6
1.1434691195083193e6
1.1526974133194694e6
1.1611561197444324e6
1.1688069774511817e6
1.1755945018236642e6
1.1814571145075618e6
1.1863344934053465e6
1.1901804786575818e6
1.1932759349166728e6
1.2158717048832446e6
100000.00000002682
100000.00000008327
100000.0000002632
100000.00000083394
100000.0000026445
100000.00000838646
100000.00002658744
100000.00008426144
100000.00026694713
100000.00084540618
100000.00267640478
100000.00847008234
100000.02679639724
100000.08474649802
100000.26793373798
100000.84683116208
100002.67566904028
100008.45147013004
100026.68582986496
100084.22046692295
100265.54947993421
100835.33169827075
102611.17538096226
108028.21435320571
123690.90670359817
163888.50607980337
248278.46006962244
386877.8783578584
564528.6504132042
743974.7769440311
888930.132983273
985756.6083453014
1.0428918140622276e6
1.0757681784917084e6
1.0963047665396372e6
1.111128191960875e6
1.1233086058257795e6
1.1341028742551864e6
1.143967638325484e6
1.153037131015574e6
1.1613230390040232e6
1.1687913784001572e6
1.1753910402717518e6
1.1810657464100046e6
1.1857616485559945e6
1.18944399667154e6
1.1925464410229437e6
1.2153914592824364e6
100000.00000002599
100000.00000008133
100000.00000025671
100000.0000008129
100000.00000257706
100000.0000081685
100000.00002588517
100000.00008199755
100000.00025965001
100000.00082188945
100000.00260062848
100000.00822595473
100000.02601003471
100000.08221405731
100000.25978012224
100000.82058699423
100002.59122797276
100008.17991266216
100025.81312478517
100081.41900642637
100256.57612795824
100806.73242270492
102521.15214246802
107753.45642591064
122912.38870503391
161998.14472602715
244627.43008104584
381371.5155606434
557938.8308298682
737555.7350272825
883613.7282367795
981718.9486434488
1.0398026043661959e6
1.073215818824534e6
1.093992895481425e6
1.1088855944312236e6
1.121047188686129e6
1.1317814399941699e6
1.1415701818420629e6
1.15056153296766e6
1.158775501601299e6
1.1661835436303422e6
1.1727379954260886e6
1.1783837722804458e6
1.1830650237628364e6
1.186748086841382e6
1.1900376121271737e6
1.2133246526223605e6
100000.00000002516
100000.00000007858
100000.00000024815
100000.00000078575
100000.0000024892
100000.00000788586
100000.00002497414
100000.00007906192
100000.00025019146
100000.00079141873
100000.00250247921
100000.00790984466
100000.02499206914
100000.07893634531
100000.2492277912
100000.78661966643
100002.48190735668
100007.82814567066
100024.6815553859
100077.78099397302
100244.89606556547
100769.3777944872
102402.97181623813
107390.05726236157
121871.13255931083
159430.08134178093
239579.16672728036
373629.21554961934
548532.1619503442
728265.2657390657
875818.4725465798
975723.297390745
1.0351577692923247e6
1.0693377121430917e6
1.0904611581773201e6
1.105462493497906e6
1.1176151430708931e6
1.1282887207482727e6
1.137998783833703e6
1.1469107401191124e6
1.1550538760015564e6
1.162404713703883e6
1.1689177575103363e6
1.174537326554581e6
1.1792044983168268e6
1.1828923588878277e6
1.1864035403830975e6
1.210263940498438e6
100000.00000002427
100000.00000007544
100000.00000023787
100000.00000075289
100000.00000238362
100000.00000754584
100000.00002387872
100000.00007553407
100000.00023883152
100000.00075484195
100000.00238472201
100000.00753076957
100000.02377188555
100000.07500906353
100000.23658821869
100000.74594226199
100002.351000649
100007.40687443352
100023.32593816462
100073.41984529735
100230.87971938908
100724.47983375973
102260.57675831801
106950.43734304674
120602.45825288935
156264.55092042382
233269.23216827234
363827.98962838826
536502.9302195058
716304.766921636
865765.6247996034
968025.8711853283
1.0292456161282097e6
1.064437469973724e6
1.0860104454026383e6
1.1011437651774043e6
1.113272762857417e6
1.1238549042543827e6
1.1334496913964162e6
1.1422442521366854e6
1.150279036299415e6
1.1575365028483868e6
1.1639739344308388e6
1.169536020151082e6
1.1741632457591787e6
1.1778443176681655e6
1.181600720457462e6
1.2061762343471225e6
100000.00000002308
100000.00000007184
100000.00000022631
100000.00000071524
100000.00000226266
100000.0000071567
100000.00002262641
100000.00007150405
100000.00022586326
100000.00071311682
100000.00225048604
100000.0070989501
100000.02238287349
100000.07054130809
100000.22221799252
100000.69972103415
100002.20232605653
100006.92861916081
100021.78742210276
100068.47120200701
100214.97550122005
100673.52093173804
102098.81628465436
106449.85321807353
119149.36427603089
152596.69769791618
225845.13312243152
352120.9227303589
521945.3156068841
701682.6435003917
853411.2041605541
958584.100801223
1.0220526809764863e6
1.0585288495954997e6
1.0806684834926354e6
1.0959585413420042e6
1.1080418133723887e6
1.1184887873280596e6
1.1279151308542318e6
1.1365353715304316e6
1.1444040045606885e6
1.1515114052521002e6
1.1578196683020114e6
1.1632765482852873e6
1.167826179565442e6
1.1714828662973584e6
1.1755070783553086e6
1.2009715800213688e6
100000.00000002184
100000.00000006772
100000.00000021339
100000.00000067378
100000.00000212943
100000.00000672785
100000.00002124748
100000.00006707014
100000.00021160854
100000.00066729472
100000.00210320645
100000.00662561468
100000.0208617533
100000.06565323776
100000.20651063386
100000.64924621006
100002.04012008071
100006.40731691293
100020.11196178537
100063.08695678922
100197.68626265948
100618.16255783982
101923.11206934389
105905.32272903559
117560.02672390106
148534.73182625248
217476.4936462484
338680.7558603524
504950.6814190205
684368.6553424953
838641.8653355615
947273.4088248727
1.0134862901687465e6
1.0515555301906932e6
1.0744024114153013e6
1.0898831858718046e6
1.101897246836233e6
1.1121567234739594e6
1.121347908861591e6
1.129719743303821e6
1.137344600142672e6
1.1442237323908384e6
1.1503273391758725e6
1.1556105437138893e6
1.1600273378368916e6
1.1636301823539108e6
1.167945229306135e6
1.194518036568242e6
100000.00000002037
100000.00000006336
100000.00000019952
100000.00000062937
100000.00000198666
100000.00000626908
100000.00001977371
100000.00006233636
100000.00019640663
100000.00061848317
100000.00194650015
100000.00612258115
100000.01924716016
100000.0604712581
100000.18988009331
100000.5958749444
100001.86883832971
100005.85761897688
100018.3478170613
100057.4263125772
100179.53742043613
100560.13357649531
101739.0834980833
105334.48164544521
115884.99560484765
144195.9904828499
208355.5734291313
323713.2144376025
485637.9098641106
664337.4381947197
821323.3612083169
933935.0284541786
1.0034201045280405e6
1.0434340192281429e6
1.0671586918364652e6
1.0828778700656577e6
1.094800177538642e6
1.1048117529267278e6
1.1136863957150625e6
1.1217157681392862e6
1.1289946948793184e6
1.1355389692593303e6
1.1413312524094735e6
1.1463400862190712e6
1.150538423575616e6
1.1540347270599268e6
1.1586618967246735e6
1.1866330037595057e6
100000.00000001889
100000.00000005888
100000.00000018493
100000.00000058279
100000.00000183735
100000.00000579009
100000.00001823736
100000.00005740832
100000.00018060119
100000.00056780214
100000.00178402006
100000.00560176777
100000.01757799763
100000.05512243915
100000.17274174729
100000.54096627505
100001.69293184097
100005.29411874573
100016.54288316068
100051.64656742252
100161.04538861335
100501.12391368383
101552.20131157093
104754.52782044905
114174.42442952355
139702.0340007022
198693.87604027378
307461.0168427396
464166.67157685425
641586.6505665311
801316.9274494654
918388.162829711
991703.8466469917
1.0340629124413388e6
1.0588725102296455e6
1.074895955431424e6
1.0867069111904632e6
1.0964019230813722e6
1.104861720803816e6
1.1124300902381353e6
1.1192291296920853e6
1.1252928961573076e6
1.130621404568925e6
1.1352043792868569e6
1.1390468770785115e6
1.1423403604670637e6
1.147291750888293e6
1.1770650226540256e6
100000.00000001746
100000.00000005415
100000.00000017026
100000.0000005353
100000.00000168472
100000.00000530107
100000.0000166704
100000.0000523887
100000.00016452723
100000.00051634172
100000.00161931114
100000.00507470786
100000.01589180577
100000.04972902409
100000.15549384807
100000.48581834417
100001.5166343013
100004.73063053587
100014.74225121114
100045.8949015195
100142.69015812415
100442.69422864856
101367.49648278326
104181.31846107726
112475.50870773871
135173.25217599884
188716.49496369145
290204.10597846715
440746.3144920656
616150.5004398456
778489.9913341656
900434.7436922576
978164.6960731948
1.023324223408012e6
1.0494704536098018e6
1.0658881188539383e6
1.0775741794980878e6
1.0868762110967205e6
1.0948038812102287e6
1.1017631616556938e6
1.1079075520677394e6
1.1132918120054067e6
1.1179373211822307e6
1.1218634744722235e6
1.1251250424354211e6
1.128037208024111e6
1.1332941724628324e6
1.1654627631362786e6
100000.00000001599
100000.00000004936
100000.00000015514
100000.00000048747
100000.00000153156
100000.00000481094
100000.00001510237
100000.00004737485
100000.0001484994
100000.00046512145
100000.00145567796
100000.0045521123
100000.01422330303
100000.04440355927
100000.13850127031
100000.43161413414
100001.34378110757
100004.17958776274
100012.9862149528
100040.3018154882
100124.89386515711
100386.20653426462
101189.3375939525
103628.66192994223
110830.28689929609
130723.34232981823
178654.62482768446
272257.04852615
415642.9313112868
588113.5564579763
752727.9810376059
879863.9482983543
962606.7462057923
1.0110821476119776e6
1.0388709681763381e6
1.0558050796701605e6
1.0673640047616838e6
1.0761912383638523e6
1.0834499344424268e6
1.0896182676609e6
1.0948829623862172e6
1.0993180481607106e6
1.1029661152520499e6
1.1058819994746686e6
1.108189353222914e6
1.110384759700247e6
1.115839730534118e6
1.1513121064974917e6
100000.00000001442
100000.00000004501
100000.00000014024
100000.00000044011
100000.00000138045
100000.00000432816
100000.00001356084
100000.00004245475
100000.00013280164
100000.00041505769
100000.00129607561
100000.00404350963
100000.01260320118
100000.03924499766
100000.12208270183
100000.37937947964
100001.17767220613
100003.65159712844
100011.30883107874
100034.97651712997
100108.00612346557
100332.77776019661
101021.28273358256
103107.83032451966
109273.94230112025
126454.06399293942
168736.4755850075
253963.2775510651
389184.2784055857
557625.4768433128
723949.2271349215
856458.9998300114
944810.6082379083
997180.6796513733
1.0269835349320255e6
1.0445996090069489e6
1.0560488121680506e6
1.064319558470428e6
1.0707555463815902e6
1.0759162925671816e6
1.0800191658101466e6
1.0831489947091045e6
1.0853558628353195e6
1.0867225169882749e6
1.0874531712051788e6
1.088294705818218e6
1.0936011901259643e6
1.133778865310334e6
100000.00000001285
100000.00000004028
100000.00000012587
100000.00000039379
100000.00000123367
100000.0000038602
100000.00001206965
100000.00003770515
100000.00011768
100000.00036693842
100000.00114302967
100000.0035569836
100000.01105735646
100000.03433596366
100000.10650188076
100000.3299551472
100001.02098382838
100003.15516229648
100009.73706444858
100030.00431323591
100092.29616656131
100283.25612097353
100866.00581592842
102627.30175771209
107833.70868793245
122450.730363607
159177.01995801533
235685.6573943458
361761.3067547525
524915.8151944947
692123.4916243427
830007.6814645235
924534.3499678603
981440.6335881375
1.0137066462927778e6
1.0322276666661244e6
1.0436165810117131e6
1.0512594679609952e6
1.0567103060099978e6
1.0606174807992138e6
1.0632192963048208e6
1.064586361861833e6
1.0647474917702412e6
1.0637712227665416e6
1.0619079112076897e6
1.060194292429896e6
1.0643916107615547e6
1.1112422687513703e6
100000.00000001154
100000.00000003581
100000.00000011195
100000.00000034977
100000.00000109315
100000.00000341336
100000.00001064893
100000.00003318934
100000.00010333682
100000.00032140745
100000.00099858332
100000.00309901299
100000.00960627604
100000.02974123937
100000.09196300393
100000.2839831707
100000.87572881812
100002.69657268775
100008.29049207931
100025.4458826074
100077.95128538838
100238.21839757738
100725.29156262301
102192.72230524973
106528.4260549925
118778.89508230066
150167.3376644196
217793.09461624094
333824.77131236
490307.2459154994
657293.8696080752
800317.6826821866
901516.8922682321
963656.4653048804
998924.3488029912
1.0186480308373028e6
1.0300751675593256e6
1.037045445829026e6
1.0413562655477165e6
1.0437507042779254e6
1.0444701968524081e6
1.043531845229317e6
1.0408665101888513e6
1.0364234573303049e6
1.0303694330283627e6
1.0239355778229969e6
1.0246339374352229e6
1.0797680518309202e6
100000.00000001008
100000.00000003177
100000.00000009882
100000.00000030796
100000.00000096053
100000.00000299263
100000.00000931406
100000.00002895741
100000.00008992887
100000.00027895685
100000.00086427889
100000.00267441725
100000.00826497069
100000.02550741228
100000.07861005477
100000.24190635503
100000.74326109981
100002.27993970248
100006.98149752474
100021.33817348002
100065.08062640698
100197.98486949768
100600.08864079861
101807.05991320546
105368.72512216264
115482.60043229125
141864.65829686608
200643.4488932483
305875.4211771213
454224.90748572454
619600.9983799704
767237.6522561718
875485.1806667551
943593.4306855758
982500.9903077983
1.0038193474989398e6
1.0154540697377335e6
1.0217568002512789e6
1.0248063543912356e6
1.0254516232897207e6
1.0239148942055713e6
1.0200908830646904e6
1.0136829608848401e6
1.0042963466863171e6
991658.9425096427
976705.2669415204
968081.9133558128
1.0251685267586226e6
100000.00000000893
100000.00000002774
100000.00000008651
100000.00000026908
100000.00000083706
100000.0000026016
100000.00000807669
100000.00002504492
100000.00007756696
100000.00023992862
100000.00074116395
100000.00228639018
100000.00704311352
100000.02166354546
100000.06652951255
100000.20397895991
100000.62431694585
100001.9073535988
100005.81585916027
100017.69658145391
100053.7231408014
100162.64772846087
100490.60715973144
101470.90892819769
104357.75384081488
112584.36746777518
134384.41937652446
184563.7594178516
278446.6491898977
417199.0723994634
579307.5053193205
730684.375510818
846166.7192267756
920985.9837406635
964273.9093468008
987693.2201916856
999800.8822808954
1.005519269975385e6
1.0072604647016258e6
1.0060000143281859e6
1.0019239550453176e6
994722.6614288978
983656.8016004701
967410.9428275784
943632.6787582596
907838.9343200157
850835.0188057888
746909.6317141181
100000.00000000789
100000.00000002429
100000.00000007509
100000.00000023302
100000.00000072348
100000.00000224287
100000.00000694442
100000.00002147465
100000.00006631842
100000.000204522
100000.00062982268
100000.00193661354
100000.00594545058
100000.01822266668
100000.05575572886
100000.17028600961
100000.51908402909
100001.57912932019
100004.7936214179
100014.51802216559
100043.8583522523
100132.108411061
100396.44518716131
101182.89610056733
103492.30897155177
110086.8620878409
127795.61687972929
169829.70306009514
252079.27421932816
379858.16961751325
536819.4600464861
690675.6474546139
813309.2593565227
895538.9517726069
944044.3293789983
970202.3485757712
983170.3520390176
988497.6203428865
989000.0978163831
985833.7124645886
979183.2787912448
968581.3649841705
952956.3512449046
930425.7274366398
897771.2817207036
849455.5731774736
776083.9711636043
661482.940610783
100000.00000000671
100000.0000000209
100000.00000006476
100000.00000020041
100000.00000062028
100000.00000191767
100000.00000592104
100000.00001825686
100000.0000562112
100000.00017280842
100000.0005304235
100000.00162542681
100000.00497239688
100000.01518384789
100000.04627817037
100000.140768463
100000.42728868486
100001.29410831051
100003.91013600345
100011.78451275663
100035.41862874287
100106.11938346268
100316.72915518936
100940.13747756132
102764.20947592874
107975.92410599318
122120.34550727186
156647.0405388723
227289.39180515075
342909.5259593471
492700.44963444385
647367.0572175052
776709.3703937568
866933.8420565677
921567.5451622639
951242.8410391943
965600.921226984
970864.9283121837
970338.6581170866
965442.9458001438
956446.8871053554
942851.9865313434
923493.4620310201
896422.5743783908
858613.2414916576
805592.9405493881
731402.4825484145
629734.2128632198
100000.00000000591
100000.00000001791
100000.00000005538
100000.00000017088
100000.00000052746
100000.00000162634
100000.00000500692
100000.00001539121
100000.00004723865
100000.00014474845
100000.00044278038
100000.00135203582
100000.00412074848
100000.01253464144
100000.03804973162
100000.11525153133
100000.34829219856
100001.04998527787
100003.15716848908
100009.46691062771
100028.3017789178
100084.32641365063
100250.25471898618
100738.6999658372
102161.74815177555
106224.46625819076
117337.72700009508
145138.26413842943
204531.9044047286
307106.26787030045
447673.0956449206
601089.0221193387
736251.0389224195
834843.715842231
896545.7523840285
930654.7689455275
947087.688499462
952761.3284995898
951557.0842244677
945261.5903447997
934335.721469732
918387.1265949929
896363.6141505117
866569.0902184849
826609.558493267
773448.89751769
703973.2765774673
616682.2201899913
100000.00000000512
100000.00000001518
100000.000000047
100000.00000014462
100000.00000044501
100000.0000013682
100000.00000419929
100000.00001286816
100000.00003936545
100000.00012021193
100000.00036642049
100000.00111473982
100000.00338444934
100000.01025365798
100000.03099539533
100000.09347372098
100000.28118804269
100000.8436331076
100002.52398167634
100007.52851736777
100022.38301112593
100066.30815107275
100195.61736647405
100574.03005421555
101671.0797348712
104796.68293039266
113391.57558638387
135337.3658398623
184164.19142329178
273200.7574284111
402602.8071363677
552378.1434844539
691953.8172217265
798960.3459080678
868627.7144911148
908204.7218201703
927555.6261123111
934259.672983392
932856.9419221617
925605.1306359252
913264.6011524847
895663.2971107567
871991.4355119815
840939.3518459625
800805.336908302
749740.9001622292
686392.1188551522
611194.5885612008
100000.00000000419
100000.00000001282
100000.00000003944
100000.00000012139
100000.00000037253
100000.00000114198
100000.00000349377
100000.00001067117
100000.00003253382
100000.00009899882
100000.00030065214
100000.00091116036
100000.0027553532
100000.00831309751
100000.0250206247
100000.07511460858
100000.22489356906
100000.67140485405
100001.99832770631
100005.92832929354
100017.52555491445
100051.61076032677
100151.32533656087
100441.32334048054
101277.43986200557
103652.05961297337
110200.42555190508
127194.37313242526
166415.90333218116
241887.68133199343
358459.7862693114
501994.8156322405
644027.2108415947
759036.725065875