# vtk DataFile Version 2.0
JuliaCFD
ASCII
DATASET UNSTRUCTURED_GRID

POINTS 32898 float
0.0 0.0 -0.05
0.0125 0.0 -0.05
0.025 0.0 -0.05
0.0375 0.0 -0.05
0.05 0.0 -0.05
0.0625 0.0 -0.05
0.075 0.0 -0.05
0.0875 0.0 -0.05
0.1 0.0 -0.05
0.1125 0.0 -0.05
0.125 0.0 -0.05
0.1375 0.0 -0.05
0.15 0.0 -0.05
0.1625 0.0 -0.05
0.175 0.0 -0.05
0.1875 0.0 -0.05
0.2 0.0 -0.05
0.2125 0.0 -0.05
0.225 0.0 -0.05
0.2375 0.0 -0.05
0.25 0.0 -0.05
0.2625 0.0 -0.05
0.275 0.0 -0.05
0.2875 0.0 -0.05
0.3 0.0 -0.05
0.3125 0.0 -0.05
0.325 0.0 -0.05
0.3375 0.0 -0.05
0.35 0.0 -0.05
0.3625 0.0 -0.05
0.375 0.0 -0.05
0.3875 0.0 -0.05
0.4 0.0 -0.05
0.4125 0.0 -0.05
0.425 0.0 -0.05
0.4375 0.0 -0.05
0.45 0.0 -0.05
0.4625 0.0 -0.05
0.475 0.0 -0.05
0.4875 0.0 -0.05
0.5 0.0 -0.05
0.5125 0.0 -0.05
0.525 0.0 -0.05
0.5375 0.0 -0.05
0.55 0.0 -0.05
0.5625 0.0 -0.05
0.575 0.0 -0.05
0.5875 0.0 -0.05
0.6 0.0 -0.05
0.0 0.0125 -0.05
0.0125 0.0125 -0.05
0.025 0.0125 -0.05
0.0375 0.0125 -0.05
0.05 0.0125 -0.05
0.0625 0.0125 -0.05
0.075 0.0125 -0.05
0.0875 0.0125 -0.05
0.1 0.0125 -0.05
0.1125 0.0125 -0.05
0.125 0.0125 -0.05
0.1375 0.0125 -0.05
0.15 0.0125 -0.05
0.1625 0.0125 -0.05
0.175 0.0125 -0.05
0.1875 0.0125 -0.05
0.2 0.0125 -0.05
0.2125 0.0125 -0.05
0.225 0.0125 -0.05
0.2375 0.0125 -0.05
0.25 0.0125 -0.05
0.2625 0.0125 -0.05
0.275 0.0125 -0.05
0.2875 0.0125 -0.05
0.3 0.0125 -0.05
0.3125 0.0125 -0.05
0.325 0.0125 -0.05
0.3375 0.0125 -0.05
0.35 0.0125 -0.05
0.3625 0.0125 -0.05
0.375 0.0125 -0.05
0.3875 0.0125 -0.05
0.4 0.0125 -0.05
0.4125 0.0125 -0.05
0.425 0.0125 -0.05
0.4375 0.0125 -0.05
0.45 0.0125 -0.05
0.4625 0.0125 -0.05
0.475 0.0125 -0.05
0.4875 0.0125 -0.05
0.5 0.0125 -0.05
0.5125 0.0125 -0.05
0.525 0.0125 -0.05
0.5375 0.0125 -0.05
0.55 0.0125 -0.05
0.5625 0.0125 -0.05
0.575 0.0125 -0.05
0.5875 0.0125 -0.05
0.6 0.0125 -0.05
0.0 0.025 -0.05
0.0125 0.025 -0.05
0.025 0.025 -0.05
0.0375 0.025 -0.05
0.05 0.025 -0.05
0.0625 0.025 -0.05
0.075 0.025 -0.05
0.0875 0.025 -0.05
0.1 0.025 -0.05
0.1125 0.025 -0.05
0.125 0.025 -0.05
0.1375 0.025 -0.05
0.15 0.025 -0.05
0.1625 0.025 -0.05
0.175 0.025 -0.05
0.1875 0.025 -0.05
0.2 0.025 -0.05
0.2125 0.025 -0.05
0.225 0.025 -0.05
0.2375 0.025 -0.05
0.25 0.025 -0.05
0.2625 0.025 -0.05
0.275 0.025 -0.05
0.2875 0.025 -0.05
0.3 0.025 -0.05
0.3125 0.025 -0.05
0.325 0.025 -0.05
0.3375 0.025 -0.05
0.35 0.025 -0.05
0.3625 0.025 -0.05
0.375 0.025 -0.05
0.3875 0.025 -0.05
0.4 0.025 -0.05
0.4125 0.025 -0.05
0.425 0.025 -0.05
0.4375 0.025 -0.05
0.45 0.025 -0.05
0.4625 0.025 -0.05
0.475 0.025 -0.05
0.4875 0.025 -0.05
0.5 0.025 -0.05
0.5125 0.025 -0.05
0.525 0.025 -0.05
0.5375 0.025 -0.05
0.55 0.025 -0.05
0.5625 0.025 -0.05
0.575 0.025 -0.05
0.5875 0.025 -0.05
0.6 0.025 -0.05
0.0 0.0375 -0.05
0.0125 0.0375 -0.05
0.025 0.0375 -0.05
0.0375 0.0375 -0.05
0.05 0.0375 -0.05
0.0625 0.0375 -0.05
0.075 0.0375 -0.05
0.0875 0.0375 -0.05
0.1 0.0375 -0.05
0.1125 0.0375 -0.05
0.125 0.0375 -0.05
0.1375 0.0375 -0.05
0.15 0.0375 -0.05
0.1625 0.0375 -0.05
0.175 0.0375 -0.05
0.1875 0.0375 -0.05
0.2 0.0375 -0.05
0.2125 0.0375 -0.05
0.225 0.0375 -0.05
0.2375 0.0375 -0.05
0.25 0.0375 -0.05
0.2625 0.0375 -0.05
0.275 0.0375 -0.05
0.2875 0.0375 -0.05
0.3 0.0375 -0.05
0.3125 0.0375 -0.05
0.325 0.0375 -0.05
0.3375 0.0375 -0.05
0.35 0.0375 -0.05
0.3625 0.0375 -0.05
0.375 0.0375 -0.05
0.3875 0.0375 -0.05
0.4 0.0375 -0.05
0.4125 0.0375 -0.05
0.425 0.0375 -0.05
0.4375 0.0375 -0.05
0.45 0.0375 -0.05
0.4625 0.0375 -0.05
0.475 0.0375 -0.05
0.4875 0.0375 -0.05
0.5 0.0375 -0.05
0.5125 0.0375 -0.05
0.525 0.0375 -0.05
0.5375 0.0375 -0.05
0.55 0.0375 -0.05
0.5625 0.0375 -0.05
0.575 0.0375 -0.05
0.5875 0.0375 -0.05
0.6 0.0375 -0.05
0.0 0.05 -0.05
0.0125 0.05 -0.05
0.025 0.05 -0.05
0.0375 0.05 -0.05
0.05 0.05 -0.05
0.0625 0.05 -0.05
0.075 0.05 -0.05
0.0875 0.05 -0.05
0.1 0.05 -0.05
0.1125 0.05 -0.05
0.125 0.05 -0.05
0.1375 0.05 -0.05
0.15 0.05 -0.05
0.1625 0.05 -0.05
0.175 0.05 -0.05
0.1875 0.05 -0.05
0.2 0.05 -0.05
0.2125 0.05 -0.05
0.225 0.05 -0.05
0.2375 0.05 -0.05
0.25 0.05 -0.05
0.2625 0.05 -0.05
0.275 0.05 -0.05
0.2875 0.05 -0.05
0.3 0.05 -0.05
0.3125 0.05 -0.05
0.325 0.05 -0.05
0.3375 0.05 -0.05
0.35 0.05 -0.05
0.3625 0.05 -0.05
0.375 0.05 -0.05
0.3875 0.05 -0.05
0.4 0.05 -0.05
0.4125 0.05 -0.05
0.425 0.05 -0.05
0.4375 0.05 -0.05
0.45 0.05 -0.05
0.4625 0.05 -0.05
0.475 0.05 -0.05
0.4875 0.05 -0.05
0.5 0.05 -0.05
0.5125 0.05 -0.05
0.525 0.05 -0.05
0.5375 0.05 -0.05
0.55 0.05 -0.05
0.5625 0.05 -0.05
0.575 0.05 -0.05
0.5875 0.05 -0.05
0.6 0.05 -0.05
0.0 0.0625 -0.05
0.0125 0.0625 -0.05
0.025 0.0625 -0.05
0.0375 0.0625 -0.05
0.05 0.0625 -0.05
0.0625 0.0625 -0.05
0.075 0.0625 -0.05
0.0875 0.0625 -0.05
0.1 0.0625 -0.05
0.1125 0.0625 -0.05
0.125 0.0625 -0.05
0.1375 0.0625 -0.05
0.15 0.0625 -0.05
0.1625 0.0625 -0.05
0.175 0.0625 -0.05
0.1875 0.0625 -0.05
0.2 0.0625 -0.05
0.2125 0.0625 -0.05
0.225 0.0625 -0.05
0.2375 0.0625 -0.05
0.25 0.0625 -0.05
0.2625 0.0625 -0.05
0.275 0.0625 -0.05
0.2875 0.0625 -0.05
0.3 0.0625 -0.05
0.3125 0.0625 -0.05
0.325 0.0625 -0.05
0.3375 0.0625 -0.05
0.35 0.0625 -0.05
0.3625 0.0625 -0.05
0.375 0.0625 -0.05
0.3875 0.0625 -0.05
0.4 0.0625 -0.05
0.4125 0.0625 -0.05
0.425 0.0625 -0.05
0.4375 0.0625 -0.05
0.45 0.0625 -0.05
0.4625 0.0625 -0.05
0.475 0.0625 -0.05
0.4875 0.0625 -0.05
0.5 0.0625 -0.05
0.5125 0.0625 -0.05
0.525 0.0625 -0.05
0.5375 0.0625 -0.05
0.55 0.0625 -0.05
0.5625 0.0625 -0.05
0.575 0.0625 -0.05
0.5875 0.0625 -0.05
0.6 0.0625 -0.05
0.0 0.075 -0.05
0.0125 0.075 -0.05
0.025 0.075 -0.05
0.0375 0.075 -0.05
0.05 0.075 -0.05
0.0625 0.075 -0.05
0.075 0.075 -0.05
0.0875 0.075 -0.05
0.1 0.075 -0.05
0.1125 0.075 -0.05
0.125 0.075 -0.05
0.1375 0.075 -0.05
0.15 0.075 -0.05
0.1625 0.075 -0.05
0.175 0.075 -0.05
0.1875 0.075 -0.05
0.2 0.075 -0.05
0.2125 0.075 -0.05
0.225 0.075 -0.05
0.2375 0.075 -0.05
0.25 0.075 -0.05
0.2625 0.075 -0.05
0.275 0.075 -0.05
0.2875 0.075 -0.05
0.3 0.075 -0.05
0.3125 0.075 -0.05
0.325 0.075 -0.05
0.3375 0.075 -0.05
0.35 0.075 -0.05
0.3625 0.075 -0.05
0.375 0.075 -0.05
0.3875 0.075 -0.05
0.4 0.075 -0.05
0.4125 0.075 -0.05
0.425 0.075 -0.05
0.4375 0.075 -0.05
0.45 0.075 -0.05
0.4625 0.075 -0.05
0.475 0.075 -0.05
0.4875 0.075 -0.05
0.5 0.075 -0.05
0.5125 0.075 -0.05
0.525 0.075 -0.05
0.5375 0.075 -0.05
0.55 0.075 -0.05
0.5625 0.075 -0.05
0.575 0.075 -0.05
0.5875 0.075 -0.05
0.6 0.075 -0.05
0.0 0.0875 -0.05
0.0125 0.0875 -0.05
0.025 0.0875 -0.05
0.0375 0.0875 -0.05
0.05 0.0875 -0.05
0.0625 0.0875 -0.05
0.075 0.0875 -0.05
0.0875 0.0875 -0.05
0.1 0.0875 -0.05
0.1125 0.0875 -0.05
0.125 0.0875 -0.05
0.1375 0.0875 -0.05
0.15 0.0875 -0.05
0.1625 0.0875 -0.05
0.175 0.0875 -0.05
0.1875 0.0875 -0.05
0.2 0.0875 -0.05
0.2125 0.0875 -0.05
0.225 0.0875 -0.05
0.2375 0.0875 -0.05
0.25 0.0875 -0.05
0.2625 0.0875 -0.05
0.275 0.0875 -0.05
0.2875 0.0875 -0.05
0.3 0.0875 -0.05
0.3125 0.0875 -0.05
0.325 0.0875 -0.05
0.3375 0.0875 -0.05
0.35 0.0875 -0.05
0.3625 0.0875 -0.05
0.375 0.0875 -0.05
0.3875 0.0875 -0.05
0.4 0.0875 -0.05
0.4125 0.0875 -0.05
0.425 0.0875 -0.05
0.4375 0.0875 -0.05
0.45 0.0875 -0.05
0.4625 0.0875 -0.05
0.475 0.0875 -0.05
0.4875 0.0875 -0.05
0.5 0.0875 -0.05
0.5125 0.0875 -0.05
0.525 0.0875 -0.05
0.5375 0.0875 -0.05
0.55 0.0875 -0.05
0.5625 0.0875 -0.05
0.575 0.0875 -0.05
0.5875 0.0875 -0.05
0.6 0.0875 -0.05
0.0 0.1 -0.05
0.0125 0.1 -0.05
0.025 0.1 -0.05
0.0375 0.1 -0.05
0.05 0.1 -0.05
0.0625 0.1 -0.05
0.075 0.1 -0.05
0.0875 0.1 -0.05
0.1 0.1 -0.05
0.1125 0.1 -0.05
0.125 0.1 -0.05
0.1375 0.1 -0.05
0.15 0.1 -0.05
0.1625 0.1 -0.05
0.175 0.1 -0.05
0.1875 0.1 -0.05
0.2 0.1 -0.05
0.2125 0.1 -0.05
0.225 0.1 -0.05
0.2375 0.1 -0.05
0.25 0.1 -0.05
0.2625 0.1 -0.05
0.275 0.1 -0.05
0.2875 0.1 -0.05
0.3 0.1 -0.05
0.3125 0.1 -0.05
0.325 0.1 -0.05
0.3375 0.1 -0.05
0.35 0.1 -0.05
0.3625 0.1 -0.05
0.375 0.1 -0.05
0.3875 0.1 -0.05
0.4 0.1 -0.05
0.4125 0.1 -0.05
0.425 0.1 -0.05
0.4375 0.1 -0.05
0.45 0.1 -0.05
0.4625 0.1 -0.05
0.475 0.1 -0.05
0.4875 0.1 -0.05
0.5 0.1 -0.05
0.5125 0.1 -0.05
0.525 0.1 -0.05
0.5375 0.1 -0.05
0.55 0.1 -0.05
0.5625 0.1 -0.05
0.575 0.1 -0.05
0.5875 0.1 -0.05
0.6 0.1 -0.05
0.0 0.1125 -0.05
0.0125 0.1125 -0.05
0.025 0.1125 -0.05
0.0375 0.1125 -0.05
0.05 0.1125 -0.05
0.0625 0.1125 -0.05
0.075 0.1125 -0.05
0.0875 0.1125 -0.05
0.1 0.1125 -0.05
0.1125 0.1125 -0.05
0.125 0.1125 -0.05
0.1375 0.1125 -0.05
0.15 0.1125 -0.05
0.1625 0.1125 -0.05
0.175 0.1125 -0.05
0.1875 0.1125 -0.05
0.2 0.1125 -0.05
0.2125 0.1125 -0.05
0.225 0.1125 -0.05
0.2375 0.1125 -0.05
0.25 0.1125 -0.05
0.2625 0.1125 -0.05
0.275 0.1125 -0.05
0.2875 0.1125 -0.05
0.3 0.1125 -0.05
0.3125 0.1125 -0.05
0.325 0.1125 -0.05
0.3375 0.1125 -0.05
0.35 0.1125 -0.05
0.3625 0.1125 -0.05
0.375 0.1125 -0.05
0.3875 0.1125 -0.05
0.4 0.1125 -0.05
0.4125 0.1125 -0.05
0.425 0.1125 -0.05
0.4375 0.1125 -0.05
0.45 0.1125 -0.05
0.4625 0.1125 -0.05
0.475 0.1125 -0.05
0.4875 0.1125 -0.05
0.5 0.1125 -0.05
0.5125 0.1125 -0.05
0.525 0.1125 -0.05
0.5375 0.1125 -0.05
0.55 0.1125 -0.05
0.5625 0.1125 -0.05
0.575 0.1125 -0.05
0.5875 0.1125 -0.05
0.6 0.1125 -0.05
0.0 0.125 -0.05
0.0125 0.125 -0.05
0.025 0.125 -0.05
0.0375 0.125 -0.05
0.05 0.125 -0.05
0.0625 0.125 -0.05
0.075 0.125 -0.05
0.0875 0.125 -0.05
0.1 0.125 -0.05
0.1125 0.125 -0.05
0.125 0.125 -0.05
0.1375 0.125 -0.05
0.15 0.125 -0.05
0.1625 0.125 -0.05
0.175 0.125 -0.05
0.1875 0.125 -0.05
0.2 0.125 -0.05
0.2125 0.125 -0.05
0.225 0.125 -0.05
0.2375 0.125 -0.05
0.25 0.125 -0.05
0.2625 0.125 -0.05
0.275 0.125 -0.05
0.2875 0.125 -0.05
0.3 0.125 -0.05
0.3125 0.125 -0.05
0.325 0.125 -0.05
0.3375 0.125 -0.05
0.35 0.125 -0.05
0.3625 0.125 -0.05
0.375 0.125 -0.05
0.3875 0.125 -0.05
0.4 0.125 -0.05
0.4125 0.125 -0.05
0.425 0.125 -0.05
0.4375 0.125 -0.05
0.45 0.125 -0.05
0.4625 0.125 -0.05
0.475 0.125 -0.05
0.4875 0.125 -0.05
0.5 0.125 -0.05
0.5125 0.125 -0.05
0.525 0.125 -0.05
0.5375 0.125 -0.05
0.55 0.125 -0.05
0.5625 0.125 -0.05
0.575 0.125 -0.05
0.5875 0.125 -0.05
0.6 0.125 -0.05
0.0 0.1375 -0.05
0.0125 0.1375 -0.05
0.025 0.1375 -0.05
0.0375 0.1375 -0.05
0.05 0.1375 -0.05
0.0625 0.1375 -0.05
0.075 0.1375 -0.05
0.0875 0.1375 -0.05
[...]
CELL_DATA 16128
SCALARS P float 1
LOOKUP_TABLE default
100000.00000005918
99999.99999983772
100000.00000043976
99999.99999880248
100000.00000325464
99999.99999114934
100000.00002405887
99999.99993460209
100000.00017773763
99999.99951700534
100000.00131230884
99999.9964349942
100000.00968293821
99999.97370518775
100000.07139017085
99999.80622528025
100000.52580137586
99998.573848734
100003.86528231761
99989.55371147156
100027.67345794676
99939.65519165604
99820.59144099781
119970.24260126238
262290.3822588525
555957.7128366188
847835.1577134646
995780.5369139792
1.0382892823601951e6
1.0536347418687318e6
1.0654550637514577e6
1.0766647432156247e6
1.0874466295094318e6
1.0977874998070118e6
1.1076738183751076e6
1.1170939513280885e6
1.1260332837923814e6
1.134472535622057e6
1.1423841913548931e6
1.1497392402234862e6
1.1564867944207783e6
1.1626156187916817e6
1.1679768485086153e6
1.1728133806389142e6
1.176202005247476e6
1.1806824687541416e6
1.1785132324031687e6
1.1924838392543374e6
100000.00000005828
99999.99999983997
100000.00000043384
99999.99999881831
100000.00000321213
99999.99999126368
100000.00002375389
99999.99993541335
100000.00017558211
99999.9995227252
100000.00129714474
99999.996475179
100000.00957642491
99999.97398772437
100000.0706401206
99999.80821553218
100000.52054377309
99998.58754437204
100003.83081997359
99989.63353671375
100027.52376130498
99939.77465460701
99819.39814840832
119476.74500885265
260844.91896141553
555403.6635670954
850789.9879899912
1.0021121684813863e6
1.0462545086379633e6
1.0623134508299294e6
1.0745257137927234e6
1.085997212030827e6
1.0969911744939834e6
1.1075324396776862e6
1.117624348104943e6
1.1272612659691914e6
1.1364289906729423e6
1.1451055917662443e6
1.153258950651675e6
1.1608538369982543e6
1.1678318030012718e6
1.1741723045213153e6
1.1797166792193428e6
1.1846954632414654e6
1.1881757814461996e6
1.1926962148826034e6
1.1904532107375665e6
1.2046288535199026e6
100000.00000005643
99999.99999984536
100000.0000004196
99999.99999885722
100000.00000310868
99999.99999154019
100000.00002301687
99999.99993737364
100000.00017038395
99999.9995364621
100000.00126099076
99999.99656987199
100000.00932987292
99999.97462496196
100000.0690084923
99999.81234268885
100000.51027061009
99998.61257374722
100003.77154315423
99989.76863730233
100027.22896753767
99940.40105661972
99814.7986652538
118311.26277179043
256199.08728120124
548162.2881934892
844386.3319426749
997919.6633852352
1.0429380399715311e6
1.0590171428788893e6
1.0710937837553308e6
1.0824083230898194e6
1.0932347339608385e6
1.103596755062962e6
1.1134973603740996e6
1.1229317803200928e6
1.1318875180909317e6
1.1403449164321555e6
1.1482747370390974e6
1.1556450014678221e6
1.1624018503319146e6
1.1685284002280035e6
1.173875718036195e6
1.1786713817701729e6
1.1820153033245231e6
1.18639705098919e6
1.1840860226448562e6
1.1984526717228596e6
100000.00000005338
99999.99999985362
100000.00000039749
99999.99999891686
100000.000002948
99999.99999197145
100000.00002186064
99999.9999404672
100000.00016212706
99999.99955844226
100000.00120265996
99999.99672413198
100000.00892355113
99999.97569031635
100000.06622979211
99999.81954738514
100000.49171221437
99998.66004211047
100003.65098731278
99990.07229499468
100026.47473298962
99942.09371580514
99811.20520591272
116547.19229630996
248940.97592390794
537082.7990287642
835635.5094094598
993848.0280210769
1.0409900345746673e6
1.0574965106305538e6
1.0696398348347724e6
1.0809554334934542e6
1.0917613161953466e6
1.1020929750736738e6
1.1119601478748373e6
1.1213629335258913e6
1.130292599980708e6
1.1387324853467296e6
1.1466558592000378e6
1.1540323565083598e6
1.1608097651879762e6
1.1669694889997134e6
1.1723657247852369e6
1.177210506578635e6
1.1806266359651685e6
1.1850378634787484e6
1.1827482811473631e6
1.1974886942308876e6
100000.00000004932
99999.99999986468
100000.00000036754
99999.99999899778
100000.00000272853
99999.99999256452
100000.00002025931
99999.99994478509
100000.00015050295
99999.99958968397
100000.00111884551
99999.99694853666
100000.00832405094
99999.9772880511
100000.06198269711
99999.83080557692
100000.46195717374
99998.73843646067
100003.4451501397
99990.60969976489
100025.0978807183
99945.076880881
99813.68152190314
114325.80605931295
239299.80376200835
522029.60439111025
823526.0486695291
988065.4165660427
1.0380676057709298e6
1.0550281308951378e6
1.0671264461585672e6
1.0783279424978448e6
1.0890034643152938e6
1.0991955931596558e6
1.1089172145460972e6
1.1181711712168346e6
1.1269513607592948e6
1.1352436388903856e6
1.1430238367953005e6
1.1502636779873727e6
1.1569137732756506e6
1.162955241238391e6
1.168249004195618e6
1.1729934564433845e6
1.176345798501144e6
1.1806633940914182e6
1.1783046137552715e6
1.1934549496156077e6
100000.00000004431
99999.99999987858
100000.00000033
99999.99999909973
100000.00000245094
99999.99999332038
100000.0000182048
99999.99995036738
100000.00013534767
99999.9996307939
100000.00100743446
99999.99725016541
100000.0075083301
99999.97949145212
100000.05603864486
99999.84681798473
100000.41888931584
99998.85406936375
100003.13536012327
99991.43592495336
100022.93910954132
99949.70578277513
99825.45568490577
111824.05494850379
227590.8842840884
503099.6037351431
807914.8883036948
980590.7936942125
1.0344835118953891e6
1.0521049415044873e6
1.0641608268955753e6
1.0752253604245097e6
1.0857461392180773e6
1.0957748287561105e6
1.1053278316036323e6
1.1144112649196885e6
1.1230223315475553e6
1.1311501425147895e6
1.1387738430831684e6
1.1458678989734394e6
1.152386308757268e6
1.158309971130003e6
1.1635067225015443e6
1.168159807729554e6
1.1714614042908847e6
1.1757010539976573e6
1.1732726384636655e6
1.188953787055223e6
100000.00000003858
99999.9999998945
100000.00000028599
99999.99999922051
100000.00000212078
99999.99999422424
100000.0000157319
99999.99995713231
100000.0001168469
99999.99968137837
100000.00086917086
99999.99762795669
100000.0064764593
99999.9823085686
100000.04835156983
99999.86778125117
100000.36176064008
99999.0096240114
100002.71230462393
99992.58273423514
100019.89241790208
99956.31565227904
99846.79653843383
109235.15550203812
214204.56066989858
480435.87561605364
788535.1253123755
971112.4136596873
1.0300752668106166e6
1.0486147520938716e6
1.0606230014688652e6
1.071506990809833e6
1.0818243627899014e6
1.091638478672862e6
1.1009688651858731e6
1.109824560471021e6
1.1182059338459156e6
1.1261053983878738e6
1.1335056425367885e6
1.1403842930672192e6
1.1466994300438017e6
1.1524327132869638e6
1.1574605391901715e6
1.1619530351992128e6
1.1651411100830135e6
1.169252295655354e6
1.1667015215378792e6
1.1830228059126395e6
100000.00000003206
99999.9999999123
100000.0000002371
99999.99999935545
100000.00000175044
99999.99999524251
100000.00001293146
99999.99996483549
100000.0000956538
99999.99973969375
100000.00070868486
99999.99806968063
100000.00526051139
99999.98565605495
100000.03913545093
99999.89315502172
100000.29190416366
99999.20192384782
100002.18314948719
99994.03559393888
100015.97808343024
99965.01398042517
99874.72906452286
106750.35612200148
199605.0674551947
454260.20727398933
765120.2285850005
959296.0243582769
1.0247249945004514e6
1.0445445718983236e6
1.056526055824285e6
1.0671941209620705e6
1.0772640845689597e6
1.0868159532139844e6
1.0958723508755292e6
1.1044449397655136e6
1.1125371040543308e6
1.1201445873158851e6
1.1272538577479061e6
1.1338462128313472e6
1.1398846488752088e6
1.145352940413576e6
1.1501378277034655e6
1.1543992443230737e6
1.1574095666797173e6
1.161342477865779e6
1.1586114173914217e6
1.1757167582733063e6
100000.00000002536
99999.99999993123
100000.00000018587
99999.99999949726
100000.00000135925
99999.99999632202
100000.0000099514
99999.99997306628
100000.0000729115
99999.99980256666
100000.00053478326
99999.99855092411
100000.00392806681
99999.98934716766
100000.02890514956
99999.92152377206
100000.21319833769
99999.42038583773
100001.57662255649
99995.71722543136
100011.39512293554
99975.4952564329
99903.97864730401
104538.70171106876
184324.72127019276
424893.7464882772
737409.6907305034
944732.2150370046
1.0182670442019746e6
1.0398600876874878e6
1.0518625379153893e6
1.0622811411021338e6
1.0720565632035166e6
1.0812934161193445e6
1.0900174966632132e6
1.098242431533067e6
1.10597397191325e6
1.113210649093153e6
1.1199423225823452e6
1.1261538321720392e6
1.1318132625424461e6
1.1369073343527275e6
1.1413343600667217e6
1.1452474010001915e6
1.1479635205418759e6
1.1516156383624151e6
1.1485945503520225e6
1.1666467123880466e6
100000.00000001876
99999.99999994962
100000.00000013494
99999.9999996378
100000.00000097138
99999.99999739476
100000.00000698403
99999.99998128093
100000.00005015502
99999.99986565308
100000.00035975757
99999.99903690178
100000.00257758364
99999.99310323888
100000.01844925212
99999.9506566201
100000.13195132121
99999.64718361512
100000.94304603734
99997.48600012239
100006.53205572558
99986.93745311574
99928.96153823969
102726.62056871457
168950.91382823515
392782.89722026297
705181.1799018513
926935.4740239045
1.0104837910517405e6
1.034519740247573e6
1.0466311587469153e6
1.0567717216792596e6
1.0662037423213818e6
1.075069032938292e6
1.0833969520668595e6
1.0912020656632348e6
1.0984912975231018e6
1.1052647719622946e6
1.111514646513599e6
1.117228526199171e6
1.1223793141446405e6
1.1269576058203294e6
1.1308752892359158e6
1.134284237822418e6
1.1365521186634966e6
1.1397895645412835e6
1.136338676971448e6
1.1555589905350634e6
100000.00000001269
99999.99999996678
100000.00000008802
99999.9999997678
100000.00000061255
99999.99999838708
100000.00000423934
99999.99998887983
100000.00002909932
99999.99992404983
100000.0001976463
99999.99948737964
100000.00132447001
99999.99659293958
100000.00871974438
99999.97781621604
100000.05603953399
99999.8596396023
100000.34773142869
99999.1539932601
100001.92064502569
99998.05114348706
99946.05174797046
101381.06149184973
154101.8919378936
358522.7659645561
668292.8073627437
905343.8949216135
1.0010842612069903e6
1.0284641393828933e6
1.0408315348578854e6
1.0506739638628738e6
1.0597124209880491e6
1.068145692743153e6
1.0760076969184787e6
1.0833124159303058e6
1.090065897790565e6
1.0962674592932072e6
1.101908774963596e6
1.1069770512931463e6
1.1114463134172605e6
1.115307041133702e6
1.1184798905562453e6
1.1211129102836729e6
1.122621983726168e6
1.1251172461013668e6
1.1208790507571008e6
1.1414436803153006e6
100000.00000000733
99999.9999999815
100000.00000004757
99999.99999987906
100000.00000030614
99999.99999923162
100000.00000191043
99999.99999530897
100000.00001133855
99999.99997316193
100000.00006170875
99999.99986403689
100000.00027964976
99999.99949469553
100000.00065033695
100000.0002873229
99999.99337080518
100000.03468918263
99999.85803481964
100000.52440376513
99998.13048836602
100007.3215304288
99955.04859635713
100501.05220507641
140388.31656611979
322873.1243869673
626736.9151961611
879331.0837724644
989681.5678487218
1.0216052356860115e6
1.034462551379418e6
1.044001723357459e6
1.0525968999355775e6
1.060534822461911e6
1.0678562353888445e6
1.0745725646785214e6
1.080686053623304e6
1.0861916493813235e6
1.091076403795676e6
1.0953226610769785e6
1.0989013217718296e6
1.101800089440365e6
1.1039483202862563e6
1.1055002301587688e6
1.1059349142579325e6
1.1074030197164104e6
1.102092042217379e6
1.1244239489280318e6
100000.0000000031
99999.99999999318
100000.00000001585
99999.99999996585
100000.00000006949
99999.99999987951
100000.00000013706
100000.00000016455
99999.99999803626
100000.00000962544
99999.9999616953
100000.00013855014
99999.99952558821
100000.00156783378
99999.99494511212
100000.01600510573
99999.95001565397
100000.15444048583
99999.52681869318
100001.44071692499
99995.62433558838
100013.41037257193
99959.01646990134
100022.21446581239
128359.27267558039
286760.66997880035
580702.8710257908
848234.9238130194
975768.6766869065
1.0138105775734809e6
1.0275185091016465e6
1.0367744592180466e6
1.0448799643861186e6
1.0522580601953785e6
1.0589609644613906e6
1.064995115062119e6
1.0703546917735944e6
1.075024425832877e6
1.0789786716473906e6
1.0821834928761476e6
1.084589901280027e6
1.0861571043771561e6
1.086786432979954e6
1.0865793958498652e6
1.0849955653567128e6
1.0841859215071232e6
1.076202465978329e6
1.099728798545609e6
100000.0
100000.00000000141
99999.99999999383
100000.00000002513
99999.99999990963
100000.00000030985
99999.99999897968
100000.00000327511
99999.99998968522
100000.00003202193
99999.99990170145
100000.00029904608
99999.9990968521
100000.00271128379
99999.9919009425
100000.02409343875
99999.92857243717
100000.21114810443
99999.37729849781
100001.8329186985
99994.61688007039
100015.59782507527
99962.46342006483
99836.04101468206
118435.74277212672
251260.64860665688
530643.5815252162
811409.2845513807
958695.9983094614
1.004881677895536e6
1.0199830369765111e6
1.0290165722111056e6
1.0365938669653437e6
1.0433492613985732e6
1.0493555516458892e6
1.0546118866709776e6
1.0590993946231292e6
1.062785743961305e6
1.0656236627908188e6
1.0675519037858476e6
1.068490831483551e6
1.0683632663367984e6
1.0670402725842535e6
1.064613546844567e6
1.0606059273093138e6
1.057293866218481e6
1.0466893474069977e6
1.0730455873383407e6
99999.99999999817
100000.00000000608
99999.9999999812
100000.00000005827
99999.9999998234
100000.00000053213
99999.99999840905
100000.00000472876
99999.99998601942
100000.00004115146
99999.99987932818
100000.00035269889
99999.99897203808
100000.00298874282
99999.9913287225
100000.0251123751
99999.92738656294
100000.20968860495
99999.39514234674
100001.74292823914
99994.99053658562
100014.094672995
99968.95923603367
99820.29155685403
110842.41699008225
217550.9016189307
477336.4970659532
768303.645165603
937656.4720162493
994524.8122077542
1.0118193081302852e6
1.0207555003137187e6
1.0277806221129101e6
1.0338556533225348e6
1.0390907545163105e6
1.0434761502354091e6
1.0469737551795782e6
1.049524362683792e6
1.0510432503930584e6
1.0514161642452232e6
1.050482909391813e6
1.0480460168811205e6
1.0437799241997027e6
1.0374319421605372e6
1.0279751810263445e6
1.0168034308479143e6
994493.9730977949
1.0124531576324356e6
99999.99999999734
100000.00000000813
99999.9999999763
100000.00000006937
99999.99999979882
100000.00000058278
99999.99999831787
100000.00000484013
99999.99998611193
100000.00003974677
99999.99988651405
100000.00032331511
99999.99908077923
100000.00260839907
99999.99261191006
100000.02088956868
99999.94103498237
100000.16616836244
99999.5324808952
100001.31297122042
99996.32758452841
100010.00134387631
99979.30923150392
99871.04650045745
105558.24116452587
186832.25322732434
421926.07538683276
718572.7036125658
911687.2643624773
982313.1692119202
1.0029546990737375e6
1.0120179012762934e6
1.0184915502914259e6
1.0238386972941695e6
1.028236832856337e6
1.0316682607071128e6
1.0340705299710826e6
1.0353493774046501e6
1.0353705514299822e6
1.0339516965577698e6
1.0308412687715521e6
1.0257177687978706e6
1.018113095424277e6
1.0076444710439659e6
993317.1679749871
976847.6492666822
949128.4952846327
972170.6614731678
99999.99999999705
100000.00000000797
99999.99999997724
100000.00000006454
99999.99999981746
100000.0000005151
99999.99999855111
100000.00000406371
99999.99998863357
100000.00003170251
99999.99991183096
100000.00024447765
99999.99932423122
100000.00186165652
99999.99488995082
100000.01397079226
99999.96197304483
100000.10298755985
99999.72268922254
100000.74143860723
99998.03996664681
100004.96593705431
99991.3923348308
99923.78405102232
102310.75166910664
160210.5727118389
365931.8328339972
662213.0320992101
879701.8735324783
967641.4223351718
993257.5724741059
1.0028227778977458e6
1.0087852519573307e6
1.0133731339216182e6
1.0168825650410986e6
1.0192936287645474e6
1.020515645112478e6
1.0204100790780445e6
1.0187776322287417e6
1.0153372585430217e6
1.0096728049609662e6
1.0011711024066337e6
988801.3619197279
970984.7932855593
944034.3089217527
903058.6427353914
824583.2719211477
696372.9656855841
99999.99999999764
100000.00000000671
99999.99999998171
100000.00000005092
99999.99999985925
100000.00000038625
99999.99999894283
100000.00000287942
99999.99999219208
100000.00002106158
99999.99994351644
100000.00015045983
99999.99960235521
100000.00104105474
99999.99730572132
100000.00687254843
99999.98279618101
100000.0419837127
99999.90120926821
100000.21957383286
99999.56178016648
100000.61104175073
100001.75621175003
99955.44192967283
100632.03891829478
138540.59079348235
311204.1046633863
599714.9125039988
840570.5872790851
949678.2672720122
982503.8176980132
993170.3353202883
998723.8510699141
1.002544968637955e6
1.0051338351925978e6
1.0064829581857653e6
1.0064742564833098e6
1.0049221789145435e6
1.0015628765390373e6
996013.2039424505
987700.2396985744
975759.9734388475
958758.7812577677
934475.3738098232
898372.2830405833
844526.8501431347
753516.5063378075
617261.4811887338
99999.99999999812
100000.0000000046
99999.99999998698
100000.00000003468
99999.99999990726
100000.00000024581
99999.99999935295
100000.0000016876
99999.99999564463
100000.00001108964
99999.99997223493
100000.00006798294
99999.99983858477
100000.00036623291
99999.99922836323
100000.00140934334
99999.99827730509
99999.99824075644
100000.02442867779
99999.87370178619
100000.52709331845
99997.97962648387
100007.695870228
99969.92003132557
99972.17317347012
122249.04589554336
259810.48938199124
532203.5790400755
793266.672315452
927329.0128672059
970330.8598600415
983024.6409464338
988366.5801064897
991447.2111725459
993108.4137623874
993384.3887449027
992135.2202590922
989138.7134712175
984074.4205922276
976482.7564533489
965686.1466269146
950685.1222577047
929898.9635417085
901007.5422040209
859778.2556469076
801286.6691219937
712494.944057194
591923.2793913829
99999.99999999897
100000.00000000294
99999.99999999216
100000.00000001982
99999.9999999492
100000.00000012678
99999.99999968887
100000.00000074295
99999.99999828951
100000.00000371556
99999.99999269724
100000.00001149264
99999.99999364033
99999.9999434289
100000.00037242073
99999.99834195673
100000.00640959067
99999.97698265636
100000.07898585127
99999.73717483426
100000.85561077051
99997.25743001966
100008.61202548961
99978.6221956765
99834.87746751659
111190.90010865692
213842.82509706615
461528.78188819566
737085.5434783188
899227.8673198733
956177.3350984539
972287.229178476
977759.7893469525
980173.5352705751
980928.4859022594
980150.6806703944
977694.8837416195
973313.3523792266
966649.8951137804
957202.4497790317
944251.8546297
926775.4095201318
903243.0695283383
871551.5333627729
828233.9549585703
769742.521556233
688101.1220682467
584892.8206411848
99999.9999999994
100000.00000000153
99999.99999999627
100000.00000000896
99999.99999997935
100000.00000004412
99999.99999991232
100000.00000014123
99999.99999989584
99999.99999947229
100000.00000376487
99999.99998308436
100000.00006504147
99999.99976906137
100000.0007807275
99999.9974479563
100000.00813697654
99999.97455742507
100000.0782862554
99999.76241080214
100000.71220964966
99997.89258726123
100006.0152027801
99987.99175349151
99878.25197695837
104625.04322630336
175146.67971483816
390255.4270970284
671925.666739896
863789.1198589054
939209.6385314715
960757.7341067477
966922.005050175
968810.4431109125
968712.931497358
966929.4516587089
963336.9536537855
957676.4907944087
949578.1923891004
938531.7799676489
923830.343876673
904509.0791378161
879203.9008652203
846159.4785466447
802746.9706276013
746602.6023152877
673158.7727843786
584790.9152601215
99999.99999999988
100000.0000000007
99999.9999999987
100000.00000000227
99999.99999999706
99999.99999999884
100000.00000002795
99999.9999998531
100000.0000005923
99999.9999978549
100000.00000728726
99999.99997625612
100000.00007502914
99999.9997685316
100000.00069990272
99999.99792089967
100000.00607444061
99999.9825408125
100000.04933156869
99999.8632134529
100000.37092434739
99999.02500166348
100002.35995577389
99997.38333823257
99936.60283802765
101374.86648228424
144988.85310342014
321514.82227613503
598594.8622606897
819357.6431314719
918246.1713757975
948077.63984354
955821.876570456
957427.5249039886
956569.1895324271
953855.2576979835
949222.1663180517
942419.5687515105
933083.422696345