# vtk DataFile Version 2.0
JuliaCFD
ASCII
DATASET UNSTRUCTURED_GRID

POINTS 32898 float
0.0 0.0 -0.05
0.0125 0.0 -0.05
0.025 0.0 -0.05
0.0375 0.0 -0.05
0.05 0.0 -0.05
0.0625 0.0 -0.05
0.075 0.0 -0.05
0.0875 0.0 -0.05
0.1 0.0 -0.05
0.1125 0.0 -0.05
0.125 0.0 -0.05
0.1375 0.0 -0.05
0.15 0.0 -0.05
0.1625 0.0 -0.05
0.175 0.0 -0.05
0.1875 0.0 -0.05
0.2 0.0 -0.05
0.2125 0.0 -0.05
0.225 0.0 -0.05
0.2375 0.0 -0.05
0.25 0.0 -0.05
0.2625 0.0 -0.05
0.275 0.0 -0.05
0.2875 0.0 -0.05
0.3 0.0 -0.05
0.3125 0.0 -0.05
0.325 0.0 -0.05
0.3375 0.0 -0.05
0.35 0.0 -0.05
0.3625 0.0 -0.05
0.375 0.0 -0.05
0.3875 0.0 -0.05
0.4 0.0 -0.05
0.4125 0.0 -0.05
0.425 0.0 -0.05
0.4375 0.0 -0.05
0.45 0.0 -0.05
0.4625 0.0 -0.05
0.475 0.0 -0.05
0.4875 0.0 -0.05
0.5 0.0 -0.05
0.5125 0.0 -0.05
0.525 0.0 -0.05
0.5375 0.0 -0.05
0.55 0.0 -0.05
0.5625 0.0 -0.05
0.575 0.0 -0.05
0.5875 0.0 -0.05
0.6 0.0 -0.05
0.0 0.0125 -0.05
0.0125 0.0125 -0.05
0.025 0.0125 -0.05
0.0375 0.0125 -0.05
0.05 0.0125 -0.05
0.0625 0.0125 -0.05
0.075 0.0125 -0.05
0.0875 0.0125 -0.05
0.1 0.0125 -0.05
0.1125 0.0125 -0.05
0.125 0.0125 -0.05
0.1375 0.0125 -0.05
0.15 0.0125 -0.05
0.1625 0.0125 -0.05
0.175 0.0125 -0.05
0.1875 0.0125 -0.05
0.2 0.0125 -0.05
0.2125 0.0125 -0.05
0.225 0.0125 -0.05
0.2375 0.0125 -0.05
0.25 0.0125 -0.05
0.2625 0.0125 -0.05
0.275 0.0125 -0.05
0.2875 0.0125 -0.05
0.3 0.0125 -0.05
0.3125 0.0125 -0.05
0.325 0.0125 -0.05
0.3375 0.0125 -0.05
0.35 0.0125 -0.05
0.3625 0.0125 -0.05
0.375 0.0125 -0.05
0.3875 0.0125 -0.05
0.4 0.0125 -0.05
0.4125 0.0125 -0.05
0.425 0.0125 -0.05
0.4375 0.0125 -0.05
0.45 0.0125 -0.05
0.4625 0.0125 -0.05
0.475 0.0125 -0.05
0.4875 0.0125 -0.05
0.5 0.0125 -0.05
0.5125 0.0125 -0.05
0.525 0.0125 -0.05
0.5375 0.0125 -0.05
0.55 0.0125 -0.05
0.5625 0.0125 -0.05
0.575 0.0125 -0.05
0.5875 0.0125 -0.05
0.6 0.0125 -0.05
0.0 0.025 -0.05
0.0125 0.025 -0.05
0.025 0.025 -0.05
0.0375 0.025 -0.05
0.05 0.025 -0.05
0.0625 0.025 -0.05
0.075 0.025 -0.05
0.0875 0.025 -0.05
0.1 0.025 -0.05
0.1125 0.025 -0.05
0.125 0.025 -0.05
0.1375 0.025 -0.05
0.15 0.025 -0.05
0.1625 0.025 -0.05
0.175 0.025 -0.05
0.1875 0.025 -0.05
0.2 0.025 -0.05
0.2125 0.025 -0.05
0.225 0.025 -0.05
0.2375 0.025 -0.05
0.25 0.025 -0.05
0.2625 0.025 -0.05
0.275 0.025 -0.05
0.2875 0.025 -0.05
0.3 0.025 -0.05
0.3125 0.025 -0.05
0.325 0.025 -0.05
0.3375 0.025 -0.05
0.35 0.025 -0.05
0.3625 0.025 -0.05
0.375 0.025 -0.05
0.3875 0.025 -0.05
0.4 0.025 -0.05
0.4125 0.025 -0.05
0.425 0.025 -0.05
0.4375 0.025 -0.05
0.45 0.025 -0.05
0.4625 0.025 -0.05
0.475 0.025 -0.05
0.4875 0.025 -0.05
0.5 0.025 -0.05
0.5125 0.025 -0.05
0.525 0.025 -0.05
0.5375 0.025 -0.05
0.55 0.025 -0.05
0.5625 0.025 -0.05
0.575 0.025 -0.05
0.5875 0.025 -0.05
0.6 0.025 -0.05
0.0 0.0375 -0.05
0.0125 0.0375 -0.05
0.025 0.0375 -0.05
0.0375 0.0375 -0.05
0.05 0.0375 -0.05
0.0625 0.0375 -0.05
0.075 0.0375 -0.05
0.0875 0.0375 -0.05
0.1 0.0375 -0.05
0.1125 0.0375 -0.05
0.125 0.0375 -0.05
0.1375 0.0375 -0.05
0.15 0.0375 -0.05
0.1625 0.0375 -0.05
0.175 0.0375 -0.05
0.1875 0.0375 -0.05
0.2 0.0375 -0.05
0.2125 0.0375 -0.05
0.225 0.0375 -0.05
0.2375 0.0375 -0.05
0.25 0.0375 -0.05
0.2625 0.0375 -0.05
0.275 0.0375 -0.05
0.2875 0.0375 -0.05
0.3 0.0375 -0.05
0.3125 0.0375 -0.05
0.325 0.0375 -0.05
0.3375 0.0375 -0.05
0.35 0.0375 -0.05
0.3625 0.0375 -0.05
0.375 0.0375 -0.05
0.3875 0.0375 -0.05
0.4 0.0375 -0.05
0.4125 0.0375 -0.05
0.425 0.0375 -0.05
0.4375 0.0375 -0.05
0.45 0.0375 -0.05
0.4625 0.0375 -0.05
0.475 0.0375 -0.05
0.4875 0.0375 -0.05
0.5 0.0375 -0.05
0.5125 0.0375 -0.05
0.525 0.0375 -0.05
0.5375 0.0375 -0.05
0.55 0.0375 -0.05
0.5625 0.0375 -0.05
0.575 0.0375 -0.05
0.5875 0.0375 -0.05
0.6 0.0375 -0.05
0.0 0.05 -0.05
0.0125 0.05 -0.05
0.025 0.05 -0.05
0.0375 0.05 -0.05
0.05 0.05 -0.05
0.0625 0.05 -0.05
0.075 0.05 -0.05
0.0875 0.05 -0.05
0.1 0.05 -0.05
0.1125 0.05 -0.05
0.125 0.05 -0.05
0.1375 0.05 -0.05
0.15 0.05 -0.05
0.1625 0.05 -0.05
0.175 0.05 -0.05
0.1875 0.05 -0.05
0.2 0.05 -0.05
0.2125 0.05 -0.05
0.225 0.05 -0.05
0.2375 0.05 -0.05
0.25 0.05 -0.05
0.2625 0.05 -0.05
0.275 0.05 -0.05
0.2875 0.05 -0.05
0.3 0.05 -0.05
0.3125 0.05 -0.05
0.325 0.05 -0.05
0.3375 0.05 -0.05
0.35 0.05 -0.05
0.3625 0.05 -0.05
0.375 0.05 -0.05
0.3875 0.05 -0.05
0.4 0.05 -0.05
0.4125 0.05 -0.05
0.425 0.05 -0.05
0.4375 0.05 -0.05
0.45 0.05 -0.05
0.4625 0.05 -0.05
0.475 0.05 -0.05
0.4875 0.05 -0.05
0.5 0.05 -0.05
0.5125 0.05 -0.05
0.525 0.05 -0.05
0.5375 0.05 -0.05
0.55 0.05 -0.05
0.5625 0.05 -0.05
0.575 0.05 -0.05
0.5875 0.05 -0.05
0.6 0.05 -0.05
0.0 0.0625 -0.05
0.0125 0.0625 -0.05
0.025 0.0625 -0.05
0.0375 0.0625 -0.05
0.05 0.0625 -0.05
0.0625 0.0625 -0.05
0.075 0.0625 -0.05
0.0875 0.0625 -0.05
0.1 0.0625 -0.05
0.1125 0.0625 -0.05
0.125 0.0625 -0.05
0.1375 0.0625 -0.05
0.15 0.0625 -0.05
0.1625 0.0625 -0.05
0.175 0.0625 -0.05
0.1875 0.0625 -0.05
0.2 0.0625 -0.05
0.2125 0.0625 -0.05
0.225 0.0625 -0.05
0.2375 0.0625 -0.05
0.25 0.0625 -0.05
0.2625 0.0625 -0.05
0.275 0.0625 -0.05
0.2875 0.0625 -0.05
0.3 0.0625 -0.05
0.3125 0.0625 -0.05
0.325 0.0625 -0.05
0.3375 0.0625 -0.05
0.35 0.0625 -0.05
0.3625 0.0625 -0.05
0.375 0.0625 -0.05
0.3875 0.0625 -0.05
0.4 0.0625 -0.05
0.4125 0.0625 -0.05
0.425 0.0625 -0.05
0.4375 0.0625 -0.05
0.45 0.0625 -0.05
0.4625 0.0625 -0.05
0.475 0.0625 -0.05
0.4875 0.0625 -0.05
0.5 0.0625 -0.05
0.5125 0.0625 -0.05
0.525 0.0625 -0.05
0.5375 0.0625 -0.05
0.55 0.0625 -0.05
0.5625 0.0625 -0.05
0.575 0.0625 -0.05
0.5875 0.0625 -0.05
0.6 0.0625 -0.05
0.0 0.075 -0.05
0.0125 0.075 -0.05
0.025 0.075 -0.05
0.0375 0.075 -0.05
0.05 0.075 -0.05
0.0625 0.075 -0.05
0.075 0.075 -0.05
0.0875 0.075 -0.05
0.1 0.075 -0.05
0.1125 0.075 -0.05
0.125 0.075 -0.05
0.1375 0.075 -0.05
0.15 0.075 -0.05
0.1625 0.075 -0.05
0.175 0.075 -0.05
0.1875 0.075 -0.05
0.2 0.075 -0.05
0.2125 0.075 -0.05
0.225 0.075 -0.05
0.2375 0.075 -0.05
0.25 0.075 -0.05
0.2625 0.075 -0.05
0.275 0.075 -0.05
0.2875 0.075 -0.05
0.3 0.075 -0.05
0.3125 0.075 -0.05
0.325 0.075 -0.05
0.3375 0.075 -0.05
0.35 0.075 -0.05
0.3625 0.075 -0.05
0.375 0.075 -0.05
0.3875 0.075 -0.05
0.4 0.075 -0.05
0.4125 0.075 -0.05
0.425 0.075 -0.05
0.4375 0.075 -0.05
0.45 0.075 -0.05
0.4625 0.075 -0.05
0.475 0.075 -0.05
0.4875 0.075 -0.05
0.5 0.075 -0.05
0.5125 0.075 -0.05
0.525 0.075 -0.05
0.5375 0.075 -0.05
0.55 0.075 -0.05
0.5625 0.075 -0.05
0.575 0.075 -0.05
0.5875 0.075 -0.05
0.6 0.075 -0.05
0.0 0.0875 -0.05
0.0125 0.0875 -0.05
0.025 0.0875 -0.05
0.0375 0.0875 -0.05
0.05 0.0875 -0.05
0.0625 0.0875 -0.05
0.075 0.0875 -0.05
0.0875 0.0875 -0.05
0.1 0.0875 -0.05
0.1125 0.0875 -0.05
0.125 0.0875 -0.05
0.1375 0.0875 -0.05
0.15 0.0875 -0.05
0.1625 0.0875 -0.05
0.175 0.0875 -0.05
0.1875 0.0875 -0.05
0.2 0.0875 -0.05
0.2125 0.0875 -0.05
0.225 0.0875 -0.05
0.2375 0.0875 -0.05
0.25 0.0875 -0.05
0.2625 0.0875 -0.05
0.275 0.0875 -0.05
0.2875 0.0875 -0.05
0.3 0.0875 -0.05
0.3125 0.0875 -0.05
0.325 0.0875 -0.05
0.3375 0.0875 -0.05
0.35 0.0875 -0.05
0.3625 0.0875 -0.05
0.375 0.0875 -0.05
0.3875 0.0875 -0.05
0.4 0.0875 -0.05
0.4125 0.0875 -0.05
0.425 0.0875 -0.05
0.4375 0.0875 -0.05
0.45 0.0875 -0.05
0.4625 0.0875 -0.05
0.475 0.0875 -0.05
0.4875 0.0875 -0.05
0.5 0.0875 -0.05
0.5125 0.0875 -0.05
0.525 0.0875 -0.05
0.5375 0.0875 -0.05
0.55 0.0875 -0.05
0.5625 0.0875 -0.05
0.575 0.0875 -0.05
0.5875 0.0875 -0.05
0.6 0.0875 -0.05
0.0 0.1 -0.05
0.0125 0.1 -0.05
0.025 0.1 -0.05
0.0375 0.1 -0.05
0.05 0.1 -0.05
0.0625 0.1 -0.05
0.075 0.1 -0.05
0.0875 0.1 -0.05
0.1 0.1 -0.05
0.1125 0.1 -0.05
0.125 0.1 -0.05
0.1375 0.1 -0.05
0.15 0.1 -0.05
0.1625 0.1 -0.05
0.175 0.1 -0.05
0.1875 0.1 -0.05
0.2 0.1 -0.05
0.2125 0.1 -0.05
0.225 0.1 -0.05
0.2375 0.1 -0.05
0.25 0.1 -0.05
0.2625 0.1 -0.05
0.275 0.1 -0.05
0.2875 0.1 -0.05
0.3 0.1 -0.05
0.3125 0.1 -0.05
0.325 0.1 -0.05
0.3375 0.1 -0.05
0.35 0.1 -0.05
0.3625 0.1 -0.05
0.375 0.1 -0.05
0.3875 0.1 -0.05
0.4 0.1 -0.05
0.4125 0.1 -0.05
0.425 0.1 -0.05
0.4375 0.1 -0.05
0.45 0.1 -0.05
0.4625 0.1 -0.05
0.475 0.1 -0.05
0.4875 0.1 -0.05
0.5 0.1 -0.05
0.5125 0.1 -0.05
0.525 0.1 -0.05
0.5375 0.1 -0.05
0.55 0.1 -0.05
0.5625 0.1 -0.05
0.575 0.1 -0.05
0.5875 0.1 -0.05
0.6 0.1 -0.05
0.0 0.1125 -0.05
0.0125 0.1125 -0.05
0.025 0.1125 -0.05
0.0375 0.1125 -0.05
0.05 0.1125 -0.05
0.0625 0.1125 -0.05
0.075 0.1125 -0.05
0.0875 0.1125 -0.05
0.1 0.1125 -0.05
0.1125 0.1125 -0.05
0.125 0.1125 -0.05
0.1375 0.1125 -0.05
0.15 0.1125 -0.05
0.1625 0.1125 -0.05
0.175 0.1125 -0.05
0.1875 0.1125 -0.05
0.2 0.1125 -0.05
0.2125 0.1125 -0.05
0.225 0.1125 -0.05
0.2375 0.1125 -0.05
0.25 0.1125 -0.05
0.2625 0.1125 -0.05
0.275 0.1125 -0.05
0.2875 0.1125 -0.05
0.3 0.1125 -0.05
0.3125 0.1125 -0.05
0.325 0.1125 -0.05
0.3375 0.1125 -0.05
0.35 0.1125 -0.05
0.3625 0.1125 -0.05
0.375 0.1125 -0.05
0.3875 0.1125 -0.05
0.4 0.1125 -0.05
0.4125 0.1125 -0.05
0.425 0.1125 -0.05
0.4375 0.1125 -0.05
0.45 0.1125 -0.05
0.4625 0.1125 -0.05
0.475 0.1125 -0.05
0.4875 0.1125 -0.05
0.5 0.1125 -0.05
0.5125 0.1125 -0.05
0.525 0.1125 -0.05
0.5375 0.1125 -0.05
0.55 0.1125 -0.05
0.5625 0.1125 -0.05
0.575 0.1125 -0.05
0.5875 0.1125 -0.05
0.6 0.1125 -0.05
0.0 0.125 -0.05
0.0125 0.125 -0.05
0.025 0.125 -0.05
0.0375 0.125 -0.05
0.05 0.125 -0.05
0.0625 0.125 -0.05
0.075 0.125 -0.05
0.0875 0.125 -0.05
0.1 0.125 -0.05
0.1125 0.125 -0.05
0.125 0.125 -0.05
0.1375 0.125 -0.05
0.15 0.125 -0.05
0.1625 0.125 -0.05
0.175 0.125 -0.05
0.1875 0.125 -0.05
0.2 0.125 -0.05
0.2125 0.125 -0.05
0.225 0.125 -0.05
0.2375 0.125 -0.05
0.25 0.125 -0.05
0.2625 0.125 -0.05
0.275 0.125 -0.05
0.2875 0.125 -0.05
0.3 0.125 -0.05
0.3125 0.125 -0.05
0.325 0.125 -0.05
0.3375 0.125 -0.05
0.35 0.125 -0.05
0.3625 0.125 -0.05
0.375 0.125 -0.05
0.3875 0.125 -0.05
0.4 0.125 -0.05
0.4125 0.125 -0.05
0.425 0.125 -0.05
0.4375 0.125 -0.05
0.45 0.125 -0.05
0.4625 0.125 -0.05
0.475 0.125 -0.05
0.4875 0.125 -0.05
0.5 0.125 -0.05
0.5125 0.125 -0.05
0.525 0.125 -0.05
0.5375 0.125 -0.05
0.55 0.125 -0.05
0.5625 0.125 -0.05
0.575 0.125 -0.05
0.5875 0.125 -0.05
0.6 0.125 -0.05
0.0 0.1375 -0.05
0.0125 0.1375 -0.05
0.025 0.1375 -0.05
0.0375 0.1375 -0.05
0.05 0.1375 -0.05
0.0625 0.1375 -0.05
0.075 0.1375 -0.05
0.0875 0.1375 -0.05
[...]
CELL_DATA 16128
SCALARS P float 1
LOOKUP_TABLE default
100000.00000026036
100000.00000079648
100000.00000245363
100000.00000757303
100000.00002338973
100000.00007225209
100000.00022319329
100000.00068943988
100000.00212957883
100000.00657769572
100000.02031603803
100000.06274689232
100000.19379208097
100000.59851144567
100001.84842601762
100005.70849470615
100017.62857686129
100054.43081309977
100167.98517413445
100517.73069122816
101589.41501473622
104827.9482736952
114277.7243808496
139680.0351047991
197950.0336174172
304791.6416761535
458281.5542489741
632120.7046984119
789202.0779071415
905030.3340861483
978102.6080510844
1.0207908351710888e6
1.0463629853681956e6
1.063542493845795e6
1.0768467405918094e6
1.088301141256561e6
1.098720593449001e6
1.1083965168330288e6
1.1174115417146129e6
1.1257694591937563e6
1.1334445516447283e6
1.140399158045836e6
1.1465900038174957e6
1.1519710323380146e6
1.1564951853597483e6
1.1601190419351764e6
1.1630408953782413e6
1.1849792637539152e6
100000.0000002585
100000.00000079111
100000.00000243662
100000.00000751996
100000.00002322343
100000.00007172937
100000.00022155028
100000.00068427647
100000.00211334837
100000.00652667182
100000.02015562828
100000.0622426058
100000.19220692218
100000.59352999597
100001.83277904421
100005.65938817157
100017.47468606787
100053.94979880289
100166.48889443248
100513.12004018358
101575.48413756404
104787.60224622398
114171.30305662983
139452.5364503615
197650.2582237603
304844.05702064
459631.5675848025
635899.5601583944
796059.1459207706
914798.0174503212
990098.2878433702
1.0343011845311406e6
1.0608811419147414e6
1.0787746867965136e6
1.0926438738659723e6
1.1045958056027826e6
1.1154858498623457e6
1.1256218693085548e6
1.1350892358098961e6
1.1438863076053858e6
1.1519766264115612e6
1.1593081824292378e6
1.165821283108832e6
1.1714535589886943e6
1.1761453638293652e6
1.1798518891740893e6
1.1828558395420415e6
1.2052336915636687e6
100000.00000025443
100000.00000077889
100000.00000239858
100000.00000740075
100000.00002284911
100000.00007055396
100000.00021785684
100000.00067266852
100000.0020768623
100000.00641197691
100000.01979505536
100000.06110902046
100000.18864322128
100000.58232799731
100001.7975760373
100005.5488106741
100017.12761674677
100052.86191590573
100163.08731646276
100502.53616499266
101542.90290253836
104689.70125716516
113892.81771405619
138748.83373587794
196200.80098359543
302533.9292356036
456806.90662078274
633262.3725360542
794237.856067124
913994.6249065854
990128.4526222972
1.0348549622479446e6
1.061699130581019e6
1.0796863845437025e6
1.0935474518728135e6
1.1054316441478066e6
1.1162178429528836e6
1.1262263834876297e6
1.1355491632681757e6
1.1441881522733665e6
1.1521093739664545e6
1.159263299801488e6
1.1655935220452913e6
1.171042306022127e6
1.1755561449240753e6
1.1791015965442879e6
1.1821121170987168e6
1.204734258768288e6
100000.00000024874
100000.00000076082
100000.0000023417
100000.00000722254
100000.00002228965
100000.00006879686
100000.00021233677
100000.00065532367
100000.00202235469
100000.0062406608
100000.0192565507
100000.05941616374
100000.18332120156
100000.56559636755
100001.74497714629
100005.38348192765
100016.60811979997
100051.23057041132
100157.97128277367
100486.54161405274
101493.28608744207
104538.76472340545
113454.95978384886
137608.00686983461
193742.57723150612
298357.8068727556
451203.2191226939
627202.3022087436
788789.5612813574
909688.6402444777
986874.6644605136
1.0322939320121935e6
1.0594982022739688e6
1.0776268134936835e6
1.0915058127446636e6
1.103343819042876e6
1.1140528732240384e6
1.1239714850041906e6
1.1332020203317641e6
1.141753173872262e6
1.1495958514735796e6
1.156684288645162e6
1.1629647163251566e6
1.168380285679818e6
1.1728755305352123e6
1.1764183277254896e6
1.1796108346702242e6
1.2026684986811285e6
100000.00000024102
100000.00000073701
100000.00000226768
100000.00000699075
100000.00002156221
100000.00006651286
100000.00020516403
100000.00063279478
100000.00195157973
100000.00601828484
100000.01855773262
100000.05721978747
100000.17641701417
100000.54389052365
100001.67672890717
100005.1688750351
100015.93327369385
100049.10879588788
100151.30465093163
100465.64038953921
101428.17802411174
104339.49354166936
112871.66977742898
136068.2477190779
190369.42379649307
292528.4610417933
443255.3583243109
618478.0504328597
780830.8727636128
903303.1229122207
981970.7782306611
1.0283715263446713e6
1.05608657455191e6
1.0744195874180112e6
1.0883349697822756e6
1.10012598975187e6
1.1107505138666676e6
1.120571039219319e6
1.1297029314927408e6
1.1381625866358087e6
1.1459258854171552e6
1.152950203212746e6
1.1591830953164492e6
1.1645668299408103e6
1.1690429165142959e6
1.1725860789208414e6
1.1759937289431586e6
1.199619774911478e6
100000.00000023178
100000.0000007085
100000.00000217844
100000.00000671098
100000.00002068494
100000.00006376034
100000.00019652433
100000.00060567106
100000.00186641232
100000.005750813
100000.0177175666
100000.05458018086
100000.16812222966
100000.51781889285
100001.59476282916
100004.91112030289
100015.12253980817
100046.55844264891
100143.28442301063
100440.46164902613
101349.5868477767
104098.20201381283
112161.69341266388
134177.2846872265
186175.0615052491
285186.39250208344
433135.65294326073
607279.6943187315
770571.6026042658
895080.4702474233
975695.8104461882
1.0233923309067469e6
1.0517774820183949e6
1.070372188611864e6
1.0843268767929352e6
1.0960483294054153e6
1.106554904426927e6
1.1162398718423806e6
1.1252346152403192e6
1.13356460497796e6
1.1412113855815998e6
1.1481358984488703e6
1.1542874664462183e6
1.1596083708387066e6
1.1640395358438566e6
1.1675712967909963e6
1.1712170521916305e6
1.1955534885233485e6
100000.00000022122
100000.00000067573
100000.0000020759
100000.00000639008
100000.0000196788
100000.00006060462
100000.0001866262
100000.0005746176
100000.00176897054
100000.0054449949
100000.01675756618
100000.05156594088
100000.1586556785
100000.48808003905
100001.50131114191
100004.6173612405
100014.1988270606
100043.65318870479
100134.14833745532
100411.7741717459
101259.98931177669
103822.70076275441
111348.0872213346
131992.78481479496
181266.71006108064
276469.7765433294
420962.36218793626
593661.7681639434
758004.6660058215
884992.979560193
968038.496847245
1.0173719225349925e6
1.0466058580627781e6
1.0655273961979114e6
1.0795228578029287e6
1.0911444268958932e6
1.1014877516203711e6
1.1109848828533038e6
1.1197869354424167e6
1.127930356920327e6
1.135403675801046e6
1.1421727470838595e6
1.1481904212873997e6
1.1534015600342925e6
1.1577506947682553e6
1.1612537269131865e6
1.1651604386858903e6
1.1903780198436012e6
100000.00000020939
100000.00000063918
100000.0000019625
100000.00000603482
100000.00001856605
100000.00005711812
100000.00017569945
100000.00054036689
100000.0016615896
100000.00510827613
100000.01570148843
100000.04825292795
100000.14825982811
100000.45544988978
100001.39886074497
100004.29558398169
100013.18784190755
100040.47600215541
100124.16483134938
100380.4469142406
101162.18166719934
103521.78348409304
110456.78862170648
129580.1048271666
175767.1983316878
266535.8172725712
406861.1341987189
577658.4644682278
743070.7936063125
872940.1323350687
958909.9592770009
1.010253368546072e6
1.0405422942463902e6
1.0598714483024492e6
1.0739141681369643e6
1.0854029492222995e6
1.095529864870696e6
1.104775115625873e6
1.1133139799986666e6
1.1211962476654632e6
1.128419257444807e6
1.1349558850541676e6
1.1407653991244067e6
1.1457993291497626e6
1.150011901343048e6
1.1534570276126054e6
1.1576474680517141e6
1.1839631234060004e6
100000.00000019673
100000.00000060002
100000.0000018403
100000.00000565294
100000.00001737103
100000.00005337766
100000.00016398856
100000.0005036965
100000.00154674558
100000.00474855014
100000.01457451303
100000.04472154265
100000.1371916906
100000.42075109624
100001.2900488655
100003.95425791979
100012.11683718397
100037.11474954065
100113.61759325629
100347.39517449532
101059.097485284
103204.65036073216
109515.03848411828
127009.2541366385
169812.8442221772
255566.1285458766
390984.2855649848
559317.8127923178
725702.3493320239
858795.5279517011
948190.1964445693
1.0019520048078689e6
1.0335354785393825e6
1.0533737211783517e6
1.0674786762799532e6
1.0788011943828391e6
1.0886514650264785e6
1.0975686538075323e6
1.1057572701134067e6
1.1132830492165799e6
1.1201541621672162e6
1.1263530480087136e6
1.131849192572236e6
1.1366065229928817e6
1.1405978663117732e6
1.1439328346328766e6
1.148427988198765e6
1.1761282483504047e6
100000.00000018335
100000.00000055866
100000.00000171179
100000.00000525218
100000.00001611853
100000.00004946164
100000.00015174304
100000.00046539995
100000.00142696332
100000.00437385443
100000.01340224851
100000.04105344482
100000.12571192207
100000.38481662386
100001.17754075893
100003.6019227922
100011.01321297279
100033.65745157594
100102.78954072665
100313.52711187406
100953.63355153326
102880.36867749172
108549.87215680876
124351.60720382293
163549.4948681763
243766.57633937622
373518.1778321012
538715.7522214808
705839.2024979186
842420.407350391
935738.9992114113
992365.2723958266
1.0255218527421078e6
1.0459963072042161e6
1.0601901921760826e6
1.0713139961069745e6
1.0808205177429123e6
1.0893202032429085e6
1.0970522920130598e6
1.1041008667417439e6
1.11048652686037e6
1.1162035573359805e6
1.1212357826880794e6
1.1255668266932687e6
1.1292009467398757e6
1.132330227720131e6
1.1371418261035937e6
1.166625896910253e6
100000.00000016956
100000.00000051624
100000.00000157981
100000.00000484016
100000.00001483288
100000.0000454477
100000.00013920925
100000.0004262585
100000.0013047228
100000.003992065
100000.01220972447
100000.03732823752
100000.11407388862
100000.34845357806
100001.06390972392
100003.24679018473
100009.903193605
100030.1879031457
100091.94840892134
100279.69684281977
100848.49996714678
102557.40888777813
107586.77072235866
121676.60981305315
157127.512620682
231364.53380954667
354686.82562736876
515965.6804210459
683439.1577014236
823670.2497914465
921398.6826565242
981374.1782856
1.0164276277444458e6
1.037697093773195e6
1.052022516426584e6
1.0629185351187498e6
1.0720081192391308e6
1.0799868498487147e6
1.0871342998933985e6
1.0935543761361912e6
1.0992801717743413e6
1.1043184458406614e6
1.108670280355878e6
1.112346806791398e6
1.1154008284611758e6
1.1181472984684613e6
1.1232563803569318e6
1.1551115705645927e6
100000.00000015544
100000.0000004733
100000.00000144623
100000.0000044246
100000.00001353778
100000.00004141018
100000.0001266214
100000.00038701399
100000.00118237064
100000.00361061029
100000.01102046437
100000.03362044459
100000.10251378991
100000.31241090792
100000.95153151233
100002.89639872462
100008.81070481276
100026.78203377477
100081.33503236834
100246.66703718144
100746.10200441029
102243.27640216306
106648.53821399467
119048.68090183141
150696.04910445624
218604.16853741373
334753.4326864051
491227.1080886486
658488.6256604646
802401.2482581169
904995.3321626751
968842.3318991086
1.0061682883542945e6
1.0284307761227456e6
1.0429520853312637e6
1.0535985022894314e6
1.0621940804012227e6
1.0695349914956552e6
1.0759464233031436e6
1.0815516020492977e6
1.0863928469594156e6
1.0904857976600463e6
1.09384702251551e6
1.0965198840906222e6
1.0986245187148494e6
1.1006553954906445e6
1.1059545071720474e6
1.1410823557553045e6
100000.0000001416
100000.00000043043
100000.00000131354
100000.00000401214
100000.00001225453
100000.00003741727
100000.0001141952
100000.00034834498
100000.00106204586
100000.00323622969
100000.00985570575
100000.02999699305
100000.09124254403
100000.27735328252
100000.84250040828
100002.55734541651
100007.75651778595
100023.5051976186
100071.15482612036
100215.08231286418
100648.45716565759
101944.25054703507
105754.45645658181
116524.51499729304
144396.91663487416
205739.77665965183
314019.699360161
464713.7153398549
631014.8586477377
778478.81202314
886340.7343569876
954614.26555312
994646.8192020043
1.0181486886994324e6
1.0329598676255813e6
1.0433481466620271e6
1.0513732487633347e6
1.0579491832483953e6
1.063451316362238e6
1.0680184058989035e6
1.071692813462541e6
1.0744872130506104e6
1.0764211079942812e6
1.0775594937350175e6
1.0781002171943649e6
1.0787853063377962e6
1.0839302918024398e6
1.1237236183026028e6
100000.00000012791
100000.00000038854
100000.00000118396
100000.00000360933
100000.00001100308
100000.00003352991
100000.00010212154
100000.00031084933
100000.00094562036
100000.00287478622
100000.00873380566
100000.02651533326
100000.08043984613
100000.2438423871
100000.73857065002
100002.23510341517
100006.75768701812
100020.41045635582
100061.57259428271
100185.45364087123
100557.14790282489
101665.2341139812
104919.74959349468
114150.9811805712
138358.4657751623
193027.170212721
292822.25015309744
436700.0375014271
601099.7113132956
751788.998507391
865236.1232212584
938513.8060552166
981751.0037885142
1.0067975261168794e6
1.02203240828694e6
1.0321760037974374e6
1.0395623694250769e6
1.0452429175648069e6
1.0496470447268758e6
1.0529210198329738e6
1.0550900141826337e6
1.0561344688223994e6
1.0560420492029563e6
1.0548621386164762e6
1.0528349544976514e6
1.050986965514381e6
1.0550284631645235e6
1.1014559875985298e6
100000.00000011481
100000.000000348
100000.00000105843
100000.0000032211
100000.00000979991
100000.00002980011
100000.00009056179
100000.00027503009
100000.00083465912
100000.00253114234
100000.00766985527
100000.02322225098
100000.07025055238
100000.21232601597
100000.64112396754
100001.93392705124
100005.82727865245
100017.53782468828
100052.7105094956
100158.15311743335
100473.3078468568
101409.70874436208
104155.36501063318
111963.77483168081
132689.99182373352
180713.35722929955
271525.4958340991
407525.55862477364
568894.2179623718
722253.3012713374
841478.6696913606
920343.1166335938
967349.9381396341
994316.7481146667
1.0101615647820627e6
1.0201076272438427e6
1.0268065979540471e6
1.0314703033930328e6
1.0345861567999873e6
1.0362955730276202e6
1.0365768059593692e6
1.0353334359983475e6
1.0324454722756604e6
1.0278387175019037e6
1.0216672638421336e6
1.0151470655161997e6
1.0157246720739577e6
1.070416292112973e6
100000.00000010211
100000.00000030942
100000.00000093922
100000.0000028522
100000.00000865862
100000.00002627
100000.00007964639
100000.00024128915
100000.00073039843
100000.00220909594
100000.00667549905
100000.02015336491
100000.0607833243
100000.18313463141
100000.55116171075
100001.65683763416
100004.97436321915
100014.91437778981
100044.64889075198
100133.41778616139
100397.63721161947
101179.78389738016
103468.05030551096
109986.90725950692
127477.2534299955
169025.1071512877
250510.4514031435
377594.7685771406
534632.7222347347
689846.8315631705
814871.6405545791
899883.1455720939
951289.9234196929
980634.3586603379
997342.2414381438
1.0071862069860017e6
1.0131840142544808e6
1.01673634976373e6
1.0183949908494585e6
1.0182840102105992e6
1.0162997297316665e6
1.0121939023463362e6
1.005607749557882e6
996119.2488518017
983443.4449800813
968499.2186856137
959860.6594124484
1.0165814535249138e6
100000.00000009018
100000.00000027278
100000.0000008269
100000.00000250565
100000.0000075897
100000.00002297186
100000.00006947327
100000.00020992481
100000.00063374254
100000.00191137702
100000.00575894637
100000.01733324799
100000.052111306
100000.15648452264
100000.46931836844
100001.40567833195
100004.204230632
100012.55507113351
100037.42925690975
100111.36072034203
100330.44145273043
100976.32131346093
102860.68179629199
108233.02619961473
122779.64582595267
158157.39017129588
230159.44543827572
347371.70079145767
498644.74074300897
654619.4093842771
785239.1337955701
876896.468096479
933390.0929285008
965660.7972413662
983567.3172881701
993469.5848508737
998805.5425444542
1.0012011787015258e6
1.0012897769588268e6
999173.0779973721
994630.8291297714
987174.4419244598
975989.0756414233
959732.7014698016
936055.9183780794
900509.0602777821
843988.5549568
741134.8100192153
100000.0000000791
100000.00000023888
100000.00000072255
100000.00000218452
100000.00000660075
100000.00001992808
100000.00006010992
100000.0001811354
100000.00054527579
100000.00163969421
100000.00492514721
100000.01477607239
100000.04427448341
100000.13248634202
100000.39589218056
100001.18122318068
100003.51877574805
100010.46409514797
100031.05905069363
100091.98732212269
100271.68639934521
100799.11337071784
102332.7825810238
106704.46535274707
118629.40599676051
148263.02183851757
210837.2771004557
317367.6721814787
461362.23507216
616718.3490209983
752446.1292192225
851133.8277739611
913438.4983729039
949280.9487015307
968819.1408907745
979022.2039632036
983807.2288200303
985075.0407759992
983575.1676127989
979408.38033617
972254.6433157265
961419.8208398864
945736.8944335603
923292.2621321318
890875.7833678161
842994.6951087189
770351.1005170719
656992.5574212976
100000.00000006873
100000.00000020744
100000.0000006266
100000.00000188997
100000.00000569623
100000.00001715208
100000.00005159354
100000.00015502633
100000.00046528762
100000.00139482223
100000.00417609504
100000.012486663
100000.03728331586
100000.11115760199
100000.33088803645
100000.98332388827
100002.91699927495
100008.63657884617
100025.51741004743
100075.21475777881
100221.06295175078
100647.09276759576
101881.15947978914
105394.84402375463
115032.95157932074
139445.00636574117
192870.17139550918
288121.47428492
423319.63433455606
576410.7864745827
716424.1462579363
822345.9880527918
891189.9283176137
931344.8316532786
953057.6137640323
963901.4211444403
968332.5625346964
968591.3022269545
965595.0965479898
959491.7258524925
949923.4814936845
936101.7740380177
916735.9700058296
889832.2001240025
852363.8710940138
799889.4299972567
726508.0547843493
626001.8734658413
100000.00000005943
100000.00000017899
100000.00000053937
100000.00000162286
100000.00000487835
100000.00001464842
100000.0000439354
100000.00013162007
100000.00039380738
100000.00117671839
100000.00351122026
100000.01046182426
100000.03112320563
100000.09243769084
100000.27406781701
100000.81107832032
100002.3955705216
100007.06046530028
100020.76140181436
100060.89259860975
100178.0549633365
100518.55235968779
101500.5886100044
104290.99416157906
111974.12679664952
131752.92345080758
176524.7441483338
260172.17216312885
385143.96827855695
534102.3446621305
677201.9471665551
790302.6451386204
866367.3907930829
911658.3395508435
936206.0770196925
948139.9870891467
952510.4930492885
951970.7630138686
947673.2728583675
939875.3749305627
928260.3056536358
912062.7197921643
890061.0952069595
860490.4011544615
820938.7435911965
768379.6430899507
699721.3829830643
613482.4483130896
100000.000000051
100000.00000015345
100000.00000046083
100000.00000138313
100000.00000414641
100000.00001241472
100000.00003712423
100000.00011086871
100000.00033064418
100000.00098465744
100000.00292783957
100000.0086918214
100000.02575939392
100000.0762040409
100000.22500371745
100000.66300604744
100001.94940430381
100005.71840377773
100016.73221369815
100048.82302912467
100142.00494204594
100411.35722149147
101184.48753284359
103374.98755110496
109418.83469789776
125184.17358826962
161989.90520521504
234025.9505411819
347533.0238188879
490347.97118588653
634939.3748920802
754819.9002837666
838669.7624485022
889976.1658959445
918137.1597019386
931728.1281640034
936432.775718638
935393.0150535778
930071.6799400393
920904.5389361726
907689.852706743
889776.300852595
866126.1448294435
835327.3836605749
795637.5344305643
745195.9901370461
682644.7420495009
608405.0673751042
100000.00000004345
100000.00000013046
100000.00000039114
100000.00000117032
100000.00000349815
100000.0000104427
100000.00003112991
100000.00009266629
100000.00027543174
100000.00081737443
100000.00242161889
100000.0071618991
100000.02114191784
100000.06228827496
100000.18313074557
100000.53721874458
100001.57221292466
100004.58953397583
100013.36090853217
100038.7793627326
100112.1735165234
100323.13539820058
100925.5254784793
102626.065722384
107320.3596887012
119690.0463653897
149364.89425380068
210119.99759806815
311220.668531441
445850.2372950982
589960.6080874291
715796.8901177326
807788.3603329215
865999.476499948
898660.7757546306