# vtk DataFile Version 2.0
JuliaCFD
ASCII
DATASET UNSTRUCTURED_GRID

POINTS 32898 float
0.0 0.0 -0.05
0.0125 0.0 -0.05
0.025 0.0 -0.05
0.0375 0.0 -0.05
0.05 0.0 -0.05
0.0625 0.0 -0.05
0.075 0.0 -0.05
0.0875 0.0 -0.05
0.1 0.0 -0.05
0.1125 0.0 -0.05
0.125 0.0 -0.05
0.1375 0.0 -0.05
0.15 0.0 -0.05
0.1625 0.0 -0.05
0.175 0.0 -0.05
0.1875 0.0 -0.05
0.2 0.0 -0.05
0.2125 0.0 -0.05
0.225 0.0 -0.05
0.2375 0.0 -0.05
0.25 0.0 -0.05
0.2625 0.0 -0.05
0.275 0.0 -0.05
0.2875 0.0 -0.05
0.3 0.0 -0.05
0.3125 0.0 -0.05
0.325 0.0 -0.05
0.3375 0.0 -0.05
0.35 0.0 -0.05
0.3625 0.0 -0.05
0.375 0.0 -0.05
0.3875 0.0 -0.05
0.4 0.0 -0.05
0.4125 0.0 -0.05
0.425 0.0 -0.05
0.4375 0.0 -0.05
0.45 0.0 -0.05
0.4625 0.0 -0.05
0.475 0.0 -0.05
0.4875 0.0 -0.05
0.5 0.0 -0.05
0.5125 0.0 -0.05
0.525 0.0 -0.05
0.5375 0.0 -0.05
0.55 0.0 -0.05
0.5625 0.0 -0.05
0.575 0.0 -0.05
0.5875 0.0 -0.05
0.6 0.0 -0.05
0.0 0.0125 -0.05
0.0125 0.0125 -0.05
0.025 0.0125 -0.05
0.0375 0.0125 -0.05
0.05 0.0125 -0.05
0.0625 0.0125 -0.05
0.075 0.0125 -0.05
0.0875 0.0125 -0.05
0.1 0.0125 -0.05
0.1125 0.0125 -0.05
0.125 0.0125 -0.05
0.1375 0.0125 -0.05
0.15 0.0125 -0.05
0.1625 0.0125 -0.05
0.175 0.0125 -0.05
0.1875 0.0125 -0.05
0.2 0.0125 -0.05
0.2125 0.0125 -0.05
0.225 0.0125 -0.05
0.2375 0.0125 -0.05
0.25 0.0125 -0.05
0.2625 0.0125 -0.05
0.275 0.0125 -0.05
0.2875 0.0125 -0.05
0.3 0.0125 -0.05
0.3125 0.0125 -0.05
0.325 0.0125 -0.05
0.3375 0.0125 -0.05
0.35 0.0125 -0.05
0.3625 0.0125 -0.05
0.375 0.0125 -0.05
0.3875 0.0125 -0.05
0.4 0.0125 -0.05
0.4125 0.0125 -0.05
0.425 0.0125 -0.05
0.4375 0.0125 -0.05
0.45 0.0125 -0.05
0.4625 0.0125 -0.05
0.475 0.0125 -0.05
0.4875 0.0125 -0.05
0.5 0.0125 -0.05
0.5125 0.0125 -0.05
0.525 0.0125 -0.05
0.5375 0.0125 -0.05
0.55 0.0125 -0.05
0.5625 0.0125 -0.05
0.575 0.0125 -0.05
0.5875 0.0125 -0.05
0.6 0.0125 -0.05
0.0 0.025 -0.05
0.0125 0.025 -0.05
0.025 0.025 -0.05
0.0375 0.025 -0.05
0.05 0.025 -0.05
0.0625 0.025 -0.05
0.075 0.025 -0.05
0.0875 0.025 -0.05
0.1 0.025 -0.05
0.1125 0.025 -0.05
0.125 0.025 -0.05
0.1375 0.025 -0.05
0.15 0.025 -0.05
0.1625 0.025 -0.05
0.175 0.025 -0.05
0.1875 0.025 -0.05
0.2 0.025 -0.05
0.2125 0.025 -0.05
0.225 0.025 -0.05
0.2375 0.025 -0.05
0.25 0.025 -0.05
0.2625 0.025 -0.05
0.275 0.025 -0.05
0.2875 0.025 -0.05
0.3 0.025 -0.05
0.3125 0.025 -0.05
0.325 0.025 -0.05
0.3375 0.025 -0.05
0.35 0.025 -0.05
0.3625 0.025 -0.05
0.375 0.025 -0.05
0.3875 0.025 -0.05
0.4 0.025 -0.05
0.4125 0.025 -0.05
0.425 0.025 -0.05
0.4375 0.025 -0.05
0.45 0.025 -0.05
0.4625 0.025 -0.05
0.475 0.025 -0.05
0.4875 0.025 -0.05
0.5 0.025 -0.05
0.5125 0.025 -0.05
0.525 0.025 -0.05
0.5375 0.025 -0.05
0.55 0.025 -0.05
0.5625 0.025 -0.05
0.575 0.025 -0.05
0.5875 0.025 -0.05
0.6 0.025 -0.05
0.0 0.0375 -0.05
0.0125 0.0375 -0.05
0.025 0.0375 -0.05
0.0375 0.0375 -0.05
0.05 0.0375 -0.05
0.0625 0.0375 -0.05
0.075 0.0375 -0.05
0.0875 0.0375 -0.05
0.1 0.0375 -0.05
0.1125 0.0375 -0.05
0.125 0.0375 -0.05
0.1375 0.0375 -0.05
0.15 0.0375 -0.05
0.1625 0.0375 -0.05
0.175 0.0375 -0.05
0.1875 0.0375 -0.05
0.2 0.0375 -0.05
0.2125 0.0375 -0.05
0.225 0.0375 -0.05
0.2375 0.0375 -0.05
0.25 0.0375 -0.05
0.2625 0.0375 -0.05
0.275 0.0375 -0.05
0.2875 0.0375 -0.05
0.3 0.0375 -0.05
0.3125 0.0375 -0.05
0.325 0.0375 -0.05
0.3375 0.0375 -0.05
0.35 0.0375 -0.05
0.3625 0.0375 -0.05
0.375 0.0375 -0.05
0.3875 0.0375 -0.05
0.4 0.0375 -0.05
0.4125 0.0375 -0.05
0.425 0.0375 -0.05
0.4375 0.0375 -0.05
0.45 0.0375 -0.05
0.4625 0.0375 -0.05
0.475 0.0375 -0.05
0.4875 0.0375 -0.05
0.5 0.0375 -0.05
0.5125 0.0375 -0.05
0.525 0.0375 -0.05
0.5375 0.0375 -0.05
0.55 0.0375 -0.05
0.5625 0.0375 -0.05
0.575 0.0375 -0.05
0.5875 0.0375 -0.05
0.6 0.0375 -0.05
0.0 0.05 -0.05
0.0125 0.05 -0.05
0.025 0.05 -0.05
0.0375 0.05 -0.05
0.05 0.05 -0.05
0.0625 0.05 -0.05
0.075 0.05 -0.05
0.0875 0.05 -0.05
0.1 0.05 -0.05
0.1125 0.05 -0.05
0.125 0.05 -0.05
0.1375 0.05 -0.05
0.15 0.05 -0.05
0.1625 0.05 -0.05
0.175 0.05 -0.05
0.1875 0.05 -0.05
0.2 0.05 -0.05
0.2125 0.05 -0.05
0.225 0.05 -0.05
0.2375 0.05 -0.05
0.25 0.05 -0.05
0.2625 0.05 -0.05
0.275 0.05 -0.05
0.2875 0.05 -0.05
0.3 0.05 -0.05
0.3125 0.05 -0.05
0.325 0.05 -0.05
0.3375 0.05 -0.05
0.35 0.05 -0.05
0.3625 0.05 -0.05
0.375 0.05 -0.05
0.3875 0.05 -0.05
0.4 0.05 -0.05
0.4125 0.05 -0.05
0.425 0.05 -0.05
0.4375 0.05 -0.05
0.45 0.05 -0.05
0.4625 0.05 -0.05
0.475 0.05 -0.05
0.4875 0.05 -0.05
0.5 0.05 -0.05
0.5125 0.05 -0.05
0.525 0.05 -0.05
0.5375 0.05 -0.05
0.55 0.05 -0.05
0.5625 0.05 -0.05
0.575 0.05 -0.05
0.5875 0.05 -0.05
0.6 0.05 -0.05
0.0 0.0625 -0.05
0.0125 0.0625 -0.05
0.025 0.0625 -0.05
0.0375 0.0625 -0.05
0.05 0.0625 -0.05
0.0625 0.0625 -0.05
0.075 0.0625 -0.05
0.0875 0.0625 -0.05
0.1 0.0625 -0.05
0.1125 0.0625 -0.05
0.125 0.0625 -0.05
0.1375 0.0625 -0.05
0.15 0.0625 -0.05
0.1625 0.0625 -0.05
0.175 0.0625 -0.05
0.1875 0.0625 -0.05
0.2 0.0625 -0.05
0.2125 0.0625 -0.05
0.225 0.0625 -0.05
0.2375 0.0625 -0.05
0.25 0.0625 -0.05
0.2625 0.0625 -0.05
0.275 0.0625 -0.05
0.2875 0.0625 -0.05
0.3 0.0625 -0.05
0.3125 0.0625 -0.05
0.325 0.0625 -0.05
0.3375 0.0625 -0.05
0.35 0.0625 -0.05
0.3625 0.0625 -0.05
0.375 0.0625 -0.05
0.3875 0.0625 -0.05
0.4 0.0625 -0.05
0.4125 0.0625 -0.05
0.425 0.0625 -0.05
0.4375 0.0625 -0.05
0.45 0.0625 -0.05
0.4625 0.0625 -0.05
0.475 0.0625 -0.05
0.4875 0.0625 -0.05
0.5 0.0625 -0.05
0.5125 0.0625 -0.05
0.525 0.0625 -0.05
0.5375 0.0625 -0.05
0.55 0.0625 -0.05
0.5625 0.0625 -0.05
0.575 0.0625 -0.05
0.5875 0.0625 -0.05
0.6 0.0625 -0.05
0.0 0.075 -0.05
0.0125 0.075 -0.05
0.025 0.075 -0.05
0.0375 0.075 -0.05
0.05 0.075 -0.05
0.0625 0.075 -0.05
0.075 0.075 -0.05
0.0875 0.075 -0.05
0.1 0.075 -0.05
0.1125 0.075 -0.05
0.125 0.075 -0.05
0.1375 0.075 -0.05
0.15 0.075 -0.05
0.1625 0.075 -0.05
0.175 0.075 -0.05
0.1875 0.075 -0.05
0.2 0.075 -0.05
0.2125 0.075 -0.05
0.225 0.075 -0.05
0.2375 0.075 -0.05
0.25 0.075 -0.05
0.2625 0.075 -0.05
0.275 0.075 -0.05
0.2875 0.075 -0.05
0.3 0.075 -0.05
0.3125 0.075 -0.05
0.325 0.075 -0.05
0.3375 0.075 -0.05
0.35 0.075 -0.05
0.3625 0.075 -0.05
0.375 0.075 -0.05
0.3875 0.075 -0.05
0.4 0.075 -0.05
0.4125 0.075 -0.05
0.425 0.075 -0.05
0.4375 0.075 -0.05
0.45 0.075 -0.05
0.4625 0.075 -0.05
0.475 0.075 -0.05
0.4875 0.075 -0.05
0.5 0.075 -0.05
0.5125 0.075 -0.05
0.525 0.075 -0.05
0.5375 0.075 -0.05
0.55 0.075 -0.05
0.5625 0.075 -0.05
0.575 0.075 -0.05
0.5875 0.075 -0.05
0.6 0.075 -0.05
0.0 0.0875 -0.05
0.0125 0.0875 -0.05
0.025 0.0875 -0.05
0.0375 0.0875 -0.05
0.05 0.0875 -0.05
0.0625 0.0875 -0.05
0.075 0.0875 -0.05
0.0875 0.0875 -0.05
0.1 0.0875 -0.05
0.1125 0.0875 -0.05
0.125 0.0875 -0.05
0.1375 0.0875 -0.05
0.15 0.0875 -0.05
0.1625 0.0875 -0.05
0.175 0.0875 -0.05
0.1875 0.0875 -0.05
0.2 0.0875 -0.05
0.2125 0.0875 -0.05
0.225 0.0875 -0.05
0.2375 0.0875 -0.05
0.25 0.0875 -0.05
0.2625 0.0875 -0.05
0.275 0.0875 -0.05
0.2875 0.0875 -0.05
0.3 0.0875 -0.05
0.3125 0.0875 -0.05
0.325 0.0875 -0.05
0.3375 0.0875 -0.05
0.35 0.0875 -0.05
0.3625 0.0875 -0.05
0.375 0.0875 -0.05
0.3875 0.0875 -0.05
0.4 0.0875 -0.05
0.4125 0.0875 -0.05
0.425 0.0875 -0.05
0.4375 0.0875 -0.05
0.45 0.0875 -0.05
0.4625 0.0875 -0.05
0.475 0.0875 -0.05
0.4875 0.0875 -0.05
0.5 0.0875 -0.05
0.5125 0.0875 -0.05
0.525 0.0875 -0.05
0.5375 0.0875 -0.05
0.55 0.0875 -0.05
0.5625 0.0875 -0.05
0.575 0.0875 -0.05
0.5875 0.0875 -0.05
0.6 0.0875 -0.05
0.0 0.1 -0.05
0.0125 0.1 -0.05
0.025 0.1 -0.05
0.0375 0.1 -0.05
0.05 0.1 -0.05
0.0625 0.1 -0.05
0.075 0.1 -0.05
0.0875 0.1 -0.05
0.1 0.1 -0.05
0.1125 0.1 -0.05
0.125 0.1 -0.05
0.1375 0.1 -0.05
0.15 0.1 -0.05
0.1625 0.1 -0.05
0.175 0.1 -0.05
0.1875 0.1 -0.05
0.2 0.1 -0.05
0.2125 0.1 -0.05
0.225 0.1 -0.05
0.2375 0.1 -0.05
0.25 0.1 -0.05
0.2625 0.1 -0.05
0.275 0.1 -0.05
0.2875 0.1 -0.05
0.3 0.1 -0.05
0.3125 0.1 -0.05
0.325 0.1 -0.05
0.3375 0.1 -0.05
0.35 0.1 -0.05
0.3625 0.1 -0.05
0.375 0.1 -0.05
0.3875 0.1 -0.05
0.4 0.1 -0.05
0.4125 0.1 -0.05
0.425 0.1 -0.05
0.4375 0.1 -0.05
0.45 0.1 -0.05
0.4625 0.1 -0.05
0.475 0.1 -0.05
0.4875 0.1 -0.05
0.5 0.1 -0.05
0.5125 0.1 -0.05
0.525 0.1 -0.05
0.5375 0.1 -0.05
0.55 0.1 -0.05
0.5625 0.1 -0.05
0.575 0.1 -0.05
0.5875 0.1 -0.05
0.6 0.1 -0.05
0.0 0.1125 -0.05
0.0125 0.1125 -0.05
0.025 0.1125 -0.05
0.0375 0.1125 -0.05
0.05 0.1125 -0.05
0.0625 0.1125 -0.05
0.075 0.1125 -0.05
0.0875 0.1125 -0.05
0.1 0.1125 -0.05
0.1125 0.1125 -0.05
0.125 0.1125 -0.05
0.1375 0.1125 -0.05
0.15 0.1125 -0.05
0.1625 0.1125 -0.05
0.175 0.1125 -0.05
0.1875 0.1125 -0.05
0.2 0.1125 -0.05
0.2125 0.1125 -0.05
0.225 0.1125 -0.05
0.2375 0.1125 -0.05
0.25 0.1125 -0.05
0.2625 0.1125 -0.05
0.275 0.1125 -0.05
0.2875 0.1125 -0.05
0.3 0.1125 -0.05
0.3125 0.1125 -0.05
0.325 0.1125 -0.05
0.3375 0.1125 -0.05
0.35 0.1125 -0.05
0.3625 0.1125 -0.05
0.375 0.1125 -0.05
0.3875 0.1125 -0.05
0.4 0.1125 -0.05
0.4125 0.1125 -0.05
0.425 0.1125 -0.05
0.4375 0.1125 -0.05
0.45 0.1125 -0.05
0.4625 0.1125 -0.05
0.475 0.1125 -0.05
0.4875 0.1125 -0.05
0.5 0.1125 -0.05
0.5125 0.1125 -0.05
0.525 0.1125 -0.05
0.5375 0.1125 -0.05
0.55 0.1125 -0.05
0.5625 0.1125 -0.05
0.575 0.1125 -0.05
0.5875 0.1125 -0.05
0.6 0.1125 -0.05
0.0 0.125 -0.05
0.0125 0.125 -0.05
0.025 0.125 -0.05
0.0375 0.125 -0.05
0.05 0.125 -0.05
0.0625 0.125 -0.05
0.075 0.125 -0.05
0.0875 0.125 -0.05
0.1 0.125 -0.05
0.1125 0.125 -0.05
0.125 0.125 -0.05
0.1375 0.125 -0.05
0.15 0.125 -0.05
0.1625 0.125 -0.05
0.175 0.125 -0.05
0.1875 0.125 -0.05
0.2 0.125 -0.05
0.2125 0.125 -0.05
0.225 0.125 -0.05
0.2375 0.125 -0.05
0.25 0.125 -0.05
0.2625 0.125 -0.05
0.275 0.125 -0.05
0.2875 0.125 -0.05
0.3 0.125 -0.05
0.3125 0.125 -0.05
0.325 0.125 -0.05
0.3375 0.125 -0.05
0.35 0.125 -0.05
0.3625 0.125 -0.05
0.375 0.125 -0.05
0.3875 0.125 -0.05
0.4 0.125 -0.05
0.4125 0.125 -0.05
0.425 0.125 -0.05
0.4375 0.125 -0.05
0.45 0.125 -0.05
0.4625 0.125 -0.05
0.475 0.125 -0.05
0.4875 0.125 -0.05
0.5 0.125 -0.05
0.5125 0.125 -0.05
0.525 0.125 -0.05
0.5375 0.125 -0.05
0.55 0.125 -0.05
0.5625 0.125 -0.05
0.575 0.125 -0.05
0.5875 0.125 -0.05
0.6 0.125 -0.05
0.0 0.1375 -0.05
0.0125 0.1375 -0.05
0.025 0.1375 -0.05
0.0375 0.1375 -0.05
0.05 0.1375 -0.05
0.0625 0.1375 -0.05
0.075 0.1375 -0.05
0.0875 0.1375 -0.05
[...]
CELL_DATA 16128
SCALARS P float 1
LOOKUP_TABLE default
99999.99999999993
99999.99999999977
100000.00000000065
99999.99999999831
100000.00000000487
99999.99999998456
100000.00000004577
99999.9999998628
100000.00000040092
99999.99999884222
100000.00000329231
99999.9999907625
100000.00002556069
99999.99993026082
100000.00018744598
99999.99950431589
100000.00128693356
99999.99672980978
100000.00809409496
99999.98063531195
100000.04419731261
99999.90615375513
100000.17496349302
99999.76422415396
99999.93519426031
100002.18339528862
99990.03534790964
99972.91790300419
102513.23195195687
177071.9479085686
434427.9038156
792276.7383325496
1.0363816045702529e6
1.1132908946801827e6
1.13102429968071e6
1.1435140264635973e6
1.1554387767059703e6
1.1666124836678468e6
1.1769614339915449e6
1.186443159098902e6
1.19501017652755e6
1.2026661554544915e6
1.2092741829371236e6
1.215110099753865e6
1.219236095089903e6
1.2242914797383582e6
1.2223935616653687e6
1.2366382013732072e6
99999.99999999993
99999.99999999965
100000.0000000005
99999.99999999836
100000.00000000469
99999.99999998526
100000.00000004453
99999.99999986596
100000.0000003921
99999.99999886534
100000.00000323386
99999.99999090444
100000.00002523375
99999.99993095502
100000.00018617972
99999.99950583818
100000.00128857074
99999.99670845851
100000.0082002172
99999.9802142377
100000.04569476789
99999.90118327974
100000.19065552078
99999.71660286124
100000.07508145303
100001.78686045847
99991.00811942032
99974.87204278717
102365.37336518301
175703.2021134443
432624.6844999818
793704.2526417702
1.0429724422524784e6
1.1229898631060966e6
1.1419198705059404e6
1.1550049033353582e6
1.1672864994650576e6
1.1787014046042108e6
1.1892360796454337e6
1.198871166411777e6
1.2075618639631628e6
1.215303803504989e6
1.2219493381815907e6
1.227764555123553e6
1.2318102633729829e6
1.2367449860915416e6
1.234629727671541e6
1.2490398077813426e6
99999.99999999993
99999.99999999959
100000.00000000047
99999.99999999847
100000.00000000442
99999.99999998612
100000.00000004185
99999.99999987401
100000.00000037081
99999.99999892146
100000.0000030893
99999.99999126393
100000.00002437751
99999.99993286817
100000.00018233903
99999.99951194851
100000.00128539938
99999.99667625855
100000.00840942992
99999.9792890065
100000.04923758633
99999.88863631793
100000.23290983588
99999.57935019088
100000.50844640032
100000.45808629904
99994.73565854976
99973.65396080141
102043.88864294342
171958.14480324968
423982.71758928767
783783.8333364179
1.0359145423113016e6
1.118154418866451e6
1.137306927165034e6
1.1501787408667852e6
1.1622450822480794e6
1.173450739014017e6
1.1837777669178327e6
1.1932079293379064e6
1.2017023984873644e6
1.209263948350285e6
1.2157583719576206e6
1.2214503380116127e6
1.2254296325880676e6
1.2303017787236313e6
1.2281693220642577e6
1.2428465406721653e6
100000.00000000003
99999.99999999971
100000.00000000022
99999.99999999866
100000.00000000367
99999.99999998763
100000.00000003756
99999.99999988561
100000.00000033918
99999.99999900581
100000.00000286917
99999.99999182165
100000.00002301435
99999.99993603282
100000.00017555214
99999.99952451806
100000.00126976383
99999.9966616394
100000.00862185286
99999.97819862752
100000.0537000948
99999.87219962606
100000.28975537588
99999.39108983261
100001.1115610892
99998.58808469292
100000.03537178665
99971.69653806757
101591.02634610281
166200.9195426968
410613.28269904
769422.0835326876
1.0279230027426372e6
1.115109374047941e6
1.1353639101511592e6
1.1483791579332682e6
1.1605084981039518e6
1.1717541695613982e6
1.1821120330407566e6
1.1915739587609186e6
1.200108020879884e6
1.2077183207825697e6
1.2142753690519484e6
1.2200288131091138e6
1.2240902023201378e6
1.2290035014815377e6
1.2268869468593216e6
1.2419777068819779e6
100000.00000000003
99999.9999999999
100000.0
99999.99999999876
100000.00000000307
99999.99999998936
100000.00000003236
99999.99999990032
100000.00000029847
99999.99999911577
100000.0000025775
99999.99999257749
100000.00002111285
99999.99994063629
100000.00016499718
99999.99954670592
100000.00123036776
99999.99670310813
100000.00871073616
99999.9773488475
100000.05781410776
99999.85575006275
100000.34960155343
99999.18564341757
100001.78854284478
99996.43703506401
100006.29534582121
99968.27492089523
101084.55888368805
158784.6538729376
392654.90778856375
749614.8859895759
1.0164921937897998e6
1.1104068886328335e6
1.1320228251717442e6
1.1449973691951528e6
1.1570037354670607e6
1.1681202039090476e6
1.178346545433155e6
1.1876801275233913e6
1.1960948563191555e6
1.203597139049986e6
1.2100663304436859e6
1.2157393672763223e6
1.2197605473021031e6
1.2246096272903495e6
1.222434314588485e6
1.2379827696032256e6
100000.00000000003
99999.9999999999
99999.99999999997
99999.99999999913
100000.00000000242
99999.99999999146
100000.00000002628
99999.99999991724
100000.00000025096
99999.99999924692
100000.00000222264
99999.99999351891
100000.00001867149
99999.99994679217
100000.00015002872
99999.99958128945
100000.00115662254
99999.99683833207
100000.00854822651
99999.97715863926
100000.06024544469
99999.84343138515
100000.39987221523
99999.00033306044
100002.43113991806
99994.3095151176
100012.74649603297
99962.89838893707
100606.37647648659
150173.95377210563
370500.6609038865
724262.2623438365
1.0014768454595353e6
1.1044209081588679e6
1.1280662450654085e6
1.141041875952206e6
1.1529129994537025e6
1.1638896309788334e6
1.1739758232262062e6
1.1831751654605723e6
1.191468271822502e6
1.198864086861608e6
1.2052509958598565e6
1.2108516604980135e6
1.214843573549599e6
1.2196416948560518e6
1.2174042592256016e6
1.2335346666063932e6
99999.99999999994
99999.99999999981
100000.00000000016
99999.9999999993
100000.00000000175
99999.99999999366
100000.00000002004
99999.99999993568
100000.0000001992
99999.99999939273
100000.00000182053
99999.99999461132
100000.00001575483
99999.99995442253
100000.00013054922
99999.99962950665
100000.00104215911
99999.99709373082
100000.00803532632
99999.97797697445
100000.05981448299
99999.8391076302
100000.4282247347
99998.8737553542
100002.92093881243
99992.56082366231
100018.3994375581
99956.14545133724
100223.65424964113
140913.99499416127
344673.11655916646
693197.0237659513
982247.2870945828
1.0967253304940702e6
1.1232503598612687e6
1.1362601976198992e6
1.1479328522131331e6
1.158702375219098e6
1.1685786886796302e6
1.1775713009183335e6
1.1856681007253765e6
1.1928817473274528e6
1.199111655389806e6
1.2045687264588396e6
1.2084671790546605e6
1.2131648990567557e6
1.210812866168628e6
1.2276443343377966e6
99999.99999999993
99999.99999999988
100000.00000000006
99999.99999999967
100000.00000000099
99999.99999999574
100000.0000000137
99999.99999995383
100000.00000014614
99999.9999995438
100000.00000139468
99999.9999957953
100000.00001250759
99999.99996319502
100000.0001072417
99999.9996902401
100000.00088758992
99999.99747543229
100000.00713076573
99999.97999261395
100000.05577289524
99999.84552710781
100000.42504347954
99998.8384259846
100003.15082236077
99991.53579690683
100022.20055741639
99949.84030564154
99974.45453349968
131602.2205450692
315861.3546012525
656347.6811412432
958133.0182511333
1.0869187785952487e6
1.1175002929478816e6
1.130653975209182e6
1.1420770269282712e6
1.1525771474054484e6
1.1621770290412595e6
1.1708922340987066e6
1.1787187804022538e6
1.1856746725666565e6
1.1916723047864472e6
1.1969148268793984e6
1.200653298437871e6
1.2052015120090295e6
1.202680388928334e6
1.2203710985697226e6
99999.99999999993
99999.99999999993
99999.99999999993
99999.99999999987
100000.00000000055
99999.99999999767
100000.00000000805
99999.99999997094
100000.00000009581
99999.99999968986
100000.00000097444
99999.99999698986
100000.00000915014
99999.99997252568
100000.00008161784
99999.99975971355
100000.00070189047
99999.99796374336
100000.00587160657
99999.98316085173
100000.04805573028
99999.86347585007
100000.38623018451
99998.91171474321
100003.05403728953
99991.47699360098
100023.304079216
99946.65973447415
99860.40500793314
122843.06197070198
284940.26879736426
613784.07628187
928370.5572568437
1.074447668408194e6
1.1106710747499233e6
1.124174735099114e6
1.135294585678724e6
1.1454470943974964e6
1.1546836114008084e6
1.1630256813790742e6
1.1704776784128032e6
1.1770639547134242e6
1.1827117114953836e6
1.187618046562721e6
1.1910775428324852e6
1.1953757110560597e6
1.1925764633283012e6
1.211308955845832e6
99999.99999999993
99999.99999999997
99999.99999999985
100000.00000000003
99999.99999999993
99999.99999999917
100000.00000000314
99999.99999998562
100000.00000005185
99999.9999998206
100000.00000059104
99999.99999810342
100000.00000594722
99999.99998165427
100000.00005583338
99999.99983189168
100000.00050169126
99999.99851369129
100000.00437660447
99999.98717785059
100000.03740623448
99999.89125906631
100000.31518356435
99999.08869237122
100002.62905007658
99992.44022887404
100021.36054404262
99949.16065319434
99850.03928162217
115184.18497522245
252981.40799713708
565799.4569419402
892149.4446142641
1.0585914843520739e6
1.1025631904794013e6
1.1167793069058456e6
1.127550632247559e6
1.1372634468988387e6
1.1460304148063366e6
1.1538794942410449e6
1.1608233221941155e6
1.1668943855678164e6
1.1720337851115216e6
1.1764412111435682e6
1.1794700938536471e6
1.1833836392589447e6
1.180167153911869e6
1.2001905117614993e6
100000.0
100000.0
100000.00000000003
100000.00000000012
99999.99999999964
100000.00000000012
99999.99999999953
99999.99999999706
100000.00000001676
99999.99999992714
100000.00000027176
99999.99999905122
100000.00000315988
99999.99998978603
100000.00003228709
99999.99989960533
100000.00030822381
99999.99906302405
100000.0028263236
99999.99152617174
100000.02528670192
99999.92481228829
100000.22297145259
99999.34000919215
100001.9508838562
99994.24518054229
100016.72097590569
99958.39005260772
99893.41621881169
109038.51889705937
221240.55399374772
513001.17288518295
848680.681469189
1.0384234124060296e6
1.0928807213245407e6
1.108413498120829e6
1.1188141411503432e6
1.127979620367472e6
1.1361457962199645e6
1.1433475417927327e6
1.1496025369766746e6
1.154945430265117e6
1.159329290311297e6
1.1629554510982006e6
1.1652373804598174e6
1.1684306109302863e6
1.164433043867696e6
1.1859491954023605e6
99999.99999999993
100000.00000000003
99999.99999999997
100000.0
99999.99999999932
100000.00000000093
99999.99999999719
100000.0000000048
99999.99999999207
100000.00000000406
100000.00000003449
99999.9999997721
100000.00000098978
99999.99999626398
100000.0000130862
99999.99995617087
100000.00014245886
99999.99954657366
100000.00142142386
99999.99559348036
100000.0135489427
99999.95858736699
100000.12605175331
99999.61737523909
100001.15944439085
99996.49344287928
100010.4571365239
99972.96275001389
99943.00913408551
104607.91425009085
191108.82411322158
456400.9575602796
797308.6022539814
1.0127860419420698e6
1.081182263530849e6
1.0990018535814008e6
1.1090633275388877e6
1.1175628739553355e6
1.1249732449764882e6
1.1313411407252732e6
1.1366858149230587e6
1.1410393730734624e6
1.1443716384548198e6
1.1469020078342329e6
1.1481121152732556e6
1.1502918351665675e6
1.1452308382825206e6
1.1687007147343697e6
100000.00000000006
100000.00000000006
99999.99999999987
100000.00000000004
99999.99999999921
100000.00000000138
99999.99999999582
100000.00000000892
99999.99999997755
100000.00000005092
99999.9999998853
100000.00000024147
99999.99999953614
100000.00000071936
99999.999999548
99999.99999702765
100000.00001983189
99999.99991303017
100000.00033000857
99999.99883572423
100000.00393515908
99999.98705791404
100000.04180223883
99999.86659631874
100000.4223421692
99998.67145904692
100004.09963715394
99989.27798027314
99971.35703910375
101836.15638162078
164010.67384915653
397486.18260847207
737671.615178004
980294.6858433697
1.0668139733800222e6
1.0884250641363796e6
1.0982841185834822e6
1.1059956561375707e6
1.1124673977924602e6
1.1177683275233253e6
1.1218980044291033e6
1.1248673311204065e6
1.126625492116496e6
1.1273462919371505e6
1.1265027601580166e6
1.1263656404240075e6
1.1185817964673464e6
1.143429385957695e6
100000.0
99999.99999999993
99999.99999999978
100000.00000000025
99999.99999999937
100000.00000000144
99999.99999999566
100000.00000001027
99999.99999997235
100000.00000007074
99999.99999981574
100000.00000047451
99999.99999877597
100000.00000314788
99999.99999190285
100000.00002082557
99999.99994637464
100000.00013834845
99999.99964203873
100000.0009296569
99999.99757471458
100000.00635879635
99999.98324227323
100000.04437114883
99999.88207918563
100000.31457669006
99999.14060919295
100002.90902713791
99976.2251217976
100423.00602872949
141232.13114253464
338245.4631888532
669911.2500941933
939395.7715616471
1.04882947579712e6
1.076484753953441e6
1.086471215326088e6
1.0932928158123856e6
1.098631696130649e6
1.1026109655984307e6
1.1052052876985704e6
1.1063952200641974e6
1.1061186614917333e6
1.104537460001817e6
1.1012083567367252e6
1.0985351436029943e6
1.0881034382985258e6
1.1160385811350902e6
100000.00000000009
100000.00000000009
99999.99999999994
100000.00000000041
99999.99999999946
100000.00000000131
99999.99999999622
100000.00000000952
99999.99999997366
100000.0000000704
99999.99999980775
100000.00000052061
99999.99999857998
100000.00000388395
99999.99998931852
100000.00002953944
99999.99991777413
100000.00023050267
99999.99934891783
100000.0018536838
99999.99467929002
100000.01539798858
99999.95507528052
100000.13211239179
99999.60852831612
100001.16841360065
99996.48927253833
100010.56515655063
99971.42139718148
99916.02492728819
123679.07859425206
281114.47807642235
594910.174261844
888512.3330245774
1.0259048606809153e6
1.0628430521580256e6
1.0736140349324206e6
1.0794960625578105e6
1.0834965068294404e6
1.085849597212984e6
1.0864714834140248e6
1.085224343922009e6
1.0818481956507638e6
1.0761560366521366e6
1.0671480890712023e6
1.0563252361380106e6
1.0337942782267949e6
1.0531475573300791e6
100000.0
100000.00000000006
99999.99999999994
100000.00000000012
99999.99999999959
100000.00000000095
99999.99999999706
100000.00000000744
99999.99999997865
100000.00000005792
99999.99999983827
100000.00000044655
99999.99999875561
100000.00000347568
99999.99999023872
100000.00002755353
99999.99992176628
100000.00022350348
99999.99935730762
100000.00186057203
99999.99457637755
100000.01592119683
99999.95293198823
100000.14013233953
99999.57986341423
100001.268220074
99996.15112269478
100011.56796060347
99971.2995527068
99858.23776957075
111616.95585877859
228806.5903833233
514513.4197756488
826307.5914833753
996273.2190663076
1.0469339199399982e6
1.059680459246478e6
1.0646999044393061e6
1.067193599744949e6
1.0676640793262227e6
1.065973315672166e6
1.0618678808975224e6
1.0549443222174465e6
1.0448937239913342e6
1.0307776937235033e6
1.0144618881136032e6
986418.7607707025
1.0110922718039259e6
99999.99999999994
100000.0
99999.99999999988
100000.00000000022
99999.9999999997
100000.00000000063
99999.99999999804
100000.00000000511
99999.99999998504
100000.0000000407
99999.99999988501
100000.00000031987
99999.99999910343
100000.00000251699
99999.9999929019
100000.00002009286
99999.99994286022
100000.00016327012
99999.99953109109
100000.00135387953
99999.99606924222
100000.01147783126
99999.96628600209
100000.0996332517
99999.70371100401
100000.88665070535
99997.33358966678
100007.9301632038
99980.37599893448
99924.1621525801
104518.0288998346
183996.45043122038
431660.8992936336
752084.1957172813
957721.0216181063
1.0278298329805122e6
1.0445603660934793e6
1.0490212570046245e6
1.049899546880623e6
1.0482400611268604e6
1.0438250985733176e6
1.0361081083400679e6
1.0240993583851127e6
1.0062416874077468e6
978792.1527280634
936744.830376908
855666.9500871359
723156.3684455316
100000.0
100000.0
100000.00000000009
100000.00000000007
99999.99999999971
100000.0000000003
99999.99999999869
100000.00000000292
99999.99999999083
100000.00000002455
99999.99999993065
100000.00000019181
99999.99999946485
100000.0000014908
99999.99999583595
100000.00001164534
99999.99996736378
100000.00009163801
99999.99974216758
100000.00072687594
99999.99794685368
100000.00580985325
99999.9835323257
100000.04674557509
99999.86714132137
100000.37790311633
99998.92674889114
100002.98059119291
99993.4725973609
99969.6279507808
101164.66443319368
148831.8327129138
350339.47153723135
666306.6042768112
907729.4981876931
1.0040815064076134e6
1.0279862945342195e6
1.0325994495431229e6
1.0319150685293665e6
1.0280386285453798e6
1.0207813684621197e6
1.009356615967558e6
992354.4004746589
967544.9815057688
930302.1016172267
874566.9910731419
780154.1072511437
639011.4863450415
99999.99999999988
100000.0
99999.99999999993
99999.99999999997
99999.99999999984
99999.99999999997
99999.99999999945
100000.00000000131
99999.9999999953
100000.00000001195
99999.99999996579
100000.00000009219
99999.99999974715
100000.00000068442
99999.9999981483
100000.0000049783
99999.99998669315
100000.00003526942
99999.99990754173
100000.00023868975
99999.99939713583
100000.00147348014
99999.99658405737
100000.00719594544
99999.98781752921
100000.00710598649
100000.07298680708
99999.45672801377
100003.09389991694
99980.40105105838
100047.12346507217
124307.52802593677
275253.4263479292
571152.15459776
843858.373974044
973557.8156524803
1.0093889688930088e6
1.0155266126026231e6
1.013579489169096e6
1.0075957977152396e6
997661.7676450238
982908.1205871906
961779.2390404426
931944.2696744358
889098.326477137
828232.7454898646
735830.152889151
610612.9252497265
100000.0
100000.0
100000.0
99999.99999999994
99999.99999999993
99999.99999999997
99999.99999999964
100000.00000000047
99999.99999999802
100000.00000000422
99999.99999998798
100000.00000003006
99999.99999992269
100000.00000018928
99999.99999954937
100000.00000100597
99999.99999798226
100000.00000311574
99999.99999931375
99999.99997626133
100000.0001487765
99999.99931793632
100000.0027708223
99999.98943339108
100000.03879831996
99999.86096522289
100000.49036924845
99998.28699877246
100005.91571956128
99982.96636914351
99882.56767725377
109739.35481628127
211147.42149041814
470886.58839146176
764446.0542303692
933367.1144123751
987685.8037432827
997735.3335459369
995186.9284305136
987395.5386127795
975143.0454194202
957671.2935052945
933500.9551307543
900533.1141314148
855262.9285245513
794115.8930546878
708860.5082867424
601325.0677165203
100000.0
100000.0
100000.00000000009
100000.00000000004
99999.99999999983
99999.99999999994
99999.99999999985
99999.99999999977
99999.99999999953
100000.0000000003
99999.99999999891
99999.99999999962
100000.00000000645
99999.99999996109
100000.00000016847
99999.99999933566
100000.0000024489
99999.999991314
100000.00002997424
99999.9998985547
100000.00033832688
99999.99888430886
100000.00364667445
99999.98816491888
100000.03819024688
99999.87734274536
100000.39239274478
99998.75033084903
100003.89508619733
99990.53313463711
99937.58209999128
102804.7725878376
161791.06362691167
371794.14519511047
669616.4285306417
880015.261366637
961022.6532363609
978837.8666402578
976900.9073910651
967803.7415973921
953701.7311960049
934183.3856661551
907997.971333865
873421.3092378287
827823.4245415397
768859.3074702248
691859.3956812153
599426.708888097
100000.0
100000.0
100000.0
100000.0
100000.00000000003
99999.99999999983
99999.99999999984
99999.99999999959
100000.00000000017
99999.99999999878
100000.00000000287
99999.9999999896
100000.00000003113
99999.99999990119
100000.00000030549
99999.99999905078
100000.00000292699
99999.99999100994
100000.00002745398
99999.99991664883
100000.00025137552
99999.99924762045
100000.00223177558
99999.99345196587
100000.01894805761
99999.94615929891
100000.14915497697
99999.60306841372
100000.95512551854
99999.02170698883
99975.09218218415
100410.31348173163
128753.20100932573
281415.57958577824
562383.7890934506
810024.3115515787
926532.1691888443
957909.9724884966
958659.0246787951
949032.158168708
933621.7867910721
912697.2609016148
885354.4332066703
850278.6248468403
805612.7222129217
749917.0788522249
680748.4380526255
600535.5610989821
100000.0
100000.0
100000.0
100000.0
100000.0
99999.99999999983
99999.99999999977
99999.99999999953
100000.00000000012
99999.99999999853