# vtk DataFile Version 2.0
JuliaCFD
ASCII
DATASET UNSTRUCTURED_GRID

POINTS 32898 float
0.0 0.0 -0.05
0.0125 0.0 -0.05
0.025 0.0 -0.05
0.0375 0.0 -0.05
0.05 0.0 -0.05
0.0625 0.0 -0.05
0.075 0.0 -0.05
0.0875 0.0 -0.05
0.1 0.0 -0.05
0.1125 0.0 -0.05
0.125 0.0 -0.05
0.1375 0.0 -0.05
0.15 0.0 -0.05
0.1625 0.0 -0.05
0.175 0.0 -0.05
0.1875 0.0 -0.05
0.2 0.0 -0.05
0.2125 0.0 -0.05
0.225 0.0 -0.05
0.2375 0.0 -0.05
0.25 0.0 -0.05
0.2625 0.0 -0.05
0.275 0.0 -0.05
0.2875 0.0 -0.05
0.3 0.0 -0.05
0.3125 0.0 -0.05
0.325 0.0 -0.05
0.3375 0.0 -0.05
0.35 0.0 -0.05
0.3625 0.0 -0.05
0.375 0.0 -0.05
0.3875 0.0 -0.05
0.4 0.0 -0.05
0.4125 0.0 -0.05
0.425 0.0 -0.05
0.4375 0.0 -0.05
0.45 0.0 -0.05
0.4625 0.0 -0.05
0.475 0.0 -0.05
0.4875 0.0 -0.05
0.5 0.0 -0.05
0.5125 0.0 -0.05
0.525 0.0 -0.05
0.5375 0.0 -0.05
0.55 0.0 -0.05
0.5625 0.0 -0.05
0.575 0.0 -0.05
0.5875 0.0 -0.05
0.6 0.0 -0.05
0.0 0.0125 -0.05
0.0125 0.0125 -0.05
0.025 0.0125 -0.05
0.0375 0.0125 -0.05
0.05 0.0125 -0.05
0.0625 0.0125 -0.05
0.075 0.0125 -0.05
0.0875 0.0125 -0.05
0.1 0.0125 -0.05
0.1125 0.0125 -0.05
0.125 0.0125 -0.05
0.1375 0.0125 -0.05
0.15 0.0125 -0.05
0.1625 0.0125 -0.05
0.175 0.0125 -0.05
0.1875 0.0125 -0.05
0.2 0.0125 -0.05
0.2125 0.0125 -0.05
0.225 0.0125 -0.05
0.2375 0.0125 -0.05
0.25 0.0125 -0.05
0.2625 0.0125 -0.05
0.275 0.0125 -0.05
0.2875 0.0125 -0.05
0.3 0.0125 -0.05
0.3125 0.0125 -0.05
0.325 0.0125 -0.05
0.3375 0.0125 -0.05
0.35 0.0125 -0.05
0.3625 0.0125 -0.05
0.375 0.0125 -0.05
0.3875 0.0125 -0.05
0.4 0.0125 -0.05
0.4125 0.0125 -0.05
0.425 0.0125 -0.05
0.4375 0.0125 -0.05
0.45 0.0125 -0.05
0.4625 0.0125 -0.05
0.475 0.0125 -0.05
0.4875 0.0125 -0.05
0.5 0.0125 -0.05
0.5125 0.0125 -0.05
0.525 0.0125 -0.05
0.5375 0.0125 -0.05
0.55 0.0125 -0.05
0.5625 0.0125 -0.05
0.575 0.0125 -0.05
0.5875 0.0125 -0.05
0.6 0.0125 -0.05
0.0 0.025 -0.05
0.0125 0.025 -0.05
0.025 0.025 -0.05
0.0375 0.025 -0.05
0.05 0.025 -0.05
0.0625 0.025 -0.05
0.075 0.025 -0.05
0.0875 0.025 -0.05
0.1 0.025 -0.05
0.1125 0.025 -0.05
0.125 0.025 -0.05
0.1375 0.025 -0.05
0.15 0.025 -0.05
0.1625 0.025 -0.05
0.175 0.025 -0.05
0.1875 0.025 -0.05
0.2 0.025 -0.05
0.2125 0.025 -0.05
0.225 0.025 -0.05
0.2375 0.025 -0.05
0.25 0.025 -0.05
0.2625 0.025 -0.05
0.275 0.025 -0.05
0.2875 0.025 -0.05
0.3 0.025 -0.05
0.3125 0.025 -0.05
0.325 0.025 -0.05
0.3375 0.025 -0.05
0.35 0.025 -0.05
0.3625 0.025 -0.05
0.375 0.025 -0.05
0.3875 0.025 -0.05
0.4 0.025 -0.05
0.4125 0.025 -0.05
0.425 0.025 -0.05
0.4375 0.025 -0.05
0.45 0.025 -0.05
0.4625 0.025 -0.05
0.475 0.025 -0.05
0.4875 0.025 -0.05
0.5 0.025 -0.05
0.5125 0.025 -0.05
0.525 0.025 -0.05
0.5375 0.025 -0.05
0.55 0.025 -0.05
0.5625 0.025 -0.05
0.575 0.025 -0.05
0.5875 0.025 -0.05
0.6 0.025 -0.05
0.0 0.0375 -0.05
0.0125 0.0375 -0.05
0.025 0.0375 -0.05
0.0375 0.0375 -0.05
0.05 0.0375 -0.05
0.0625 0.0375 -0.05
0.075 0.0375 -0.05
0.0875 0.0375 -0.05
0.1 0.0375 -0.05
0.1125 0.0375 -0.05
0.125 0.0375 -0.05
0.1375 0.0375 -0.05
0.15 0.0375 -0.05
0.1625 0.0375 -0.05
0.175 0.0375 -0.05
0.1875 0.0375 -0.05
0.2 0.0375 -0.05
0.2125 0.0375 -0.05
0.225 0.0375 -0.05
0.2375 0.0375 -0.05
0.25 0.0375 -0.05
0.2625 0.0375 -0.05
0.275 0.0375 -0.05
0.2875 0.0375 -0.05
0.3 0.0375 -0.05
0.3125 0.0375 -0.05
0.325 0.0375 -0.05
0.3375 0.0375 -0.05
0.35 0.0375 -0.05
0.3625 0.0375 -0.05
0.375 0.0375 -0.05
0.3875 0.0375 -0.05
0.4 0.0375 -0.05
0.4125 0.0375 -0.05
0.425 0.0375 -0.05
0.4375 0.0375 -0.05
0.45 0.0375 -0.05
0.4625 0.0375 -0.05
0.475 0.0375 -0.05
0.4875 0.0375 -0.05
0.5 0.0375 -0.05
0.5125 0.0375 -0.05
0.525 0.0375 -0.05
0.5375 0.0375 -0.05
0.55 0.0375 -0.05
0.5625 0.0375 -0.05
0.575 0.0375 -0.05
0.5875 0.0375 -0.05
0.6 0.0375 -0.05
0.0 0.05 -0.05
0.0125 0.05 -0.05
0.025 0.05 -0.05
0.0375 0.05 -0.05
0.05 0.05 -0.05
0.0625 0.05 -0.05
0.075 0.05 -0.05
0.0875 0.05 -0.05
0.1 0.05 -0.05
0.1125 0.05 -0.05
0.125 0.05 -0.05
0.1375 0.05 -0.05
0.15 0.05 -0.05
0.1625 0.05 -0.05
0.175 0.05 -0.05
0.1875 0.05 -0.05
0.2 0.05 -0.05
0.2125 0.05 -0.05
0.225 0.05 -0.05
0.2375 0.05 -0.05
0.25 0.05 -0.05
0.2625 0.05 -0.05
0.275 0.05 -0.05
0.2875 0.05 -0.05
0.3 0.05 -0.05
0.3125 0.05 -0.05
0.325 0.05 -0.05
0.3375 0.05 -0.05
0.35 0.05 -0.05
0.3625 0.05 -0.05
0.375 0.05 -0.05
0.3875 0.05 -0.05
0.4 0.05 -0.05
0.4125 0.05 -0.05
0.425 0.05 -0.05
0.4375 0.05 -0.05
0.45 0.05 -0.05
0.4625 0.05 -0.05
0.475 0.05 -0.05
0.4875 0.05 -0.05
0.5 0.05 -0.05
0.5125 0.05 -0.05
0.525 0.05 -0.05
0.5375 0.05 -0.05
0.55 0.05 -0.05
0.5625 0.05 -0.05
0.575 0.05 -0.05
0.5875 0.05 -0.05
0.6 0.05 -0.05
0.0 0.0625 -0.05
0.0125 0.0625 -0.05
0.025 0.0625 -0.05
0.0375 0.0625 -0.05
0.05 0.0625 -0.05
0.0625 0.0625 -0.05
0.075 0.0625 -0.05
0.0875 0.0625 -0.05
0.1 0.0625 -0.05
0.1125 0.0625 -0.05
0.125 0.0625 -0.05
0.1375 0.0625 -0.05
0.15 0.0625 -0.05
0.1625 0.0625 -0.05
0.175 0.0625 -0.05
0.1875 0.0625 -0.05
0.2 0.0625 -0.05
0.2125 0.0625 -0.05
0.225 0.0625 -0.05
0.2375 0.0625 -0.05
0.25 0.0625 -0.05
0.2625 0.0625 -0.05
0.275 0.0625 -0.05
0.2875 0.0625 -0.05
0.3 0.0625 -0.05
0.3125 0.0625 -0.05
0.325 0.0625 -0.05
0.3375 0.0625 -0.05
0.35 0.0625 -0.05
0.3625 0.0625 -0.05
0.375 0.0625 -0.05
0.3875 0.0625 -0.05
0.4 0.0625 -0.05
0.4125 0.0625 -0.05
0.425 0.0625 -0.05
0.4375 0.0625 -0.05
0.45 0.0625 -0.05
0.4625 0.0625 -0.05
0.475 0.0625 -0.05
0.4875 0.0625 -0.05
0.5 0.0625 -0.05
0.5125 0.0625 -0.05
0.525 0.0625 -0.05
0.5375 0.0625 -0.05
0.55 0.0625 -0.05
0.5625 0.0625 -0.05
0.575 0.0625 -0.05
0.5875 0.0625 -0.05
0.6 0.0625 -0.05
0.0 0.075 -0.05
0.0125 0.075 -0.05
0.025 0.075 -0.05
0.0375 0.075 -0.05
0.05 0.075 -0.05
0.0625 0.075 -0.05
0.075 0.075 -0.05
0.0875 0.075 -0.05
0.1 0.075 -0.05
0.1125 0.075 -0.05
0.125 0.075 -0.05
0.1375 0.075 -0.05
0.15 0.075 -0.05
0.1625 0.075 -0.05
0.175 0.075 -0.05
0.1875 0.075 -0.05
0.2 0.075 -0.05
0.2125 0.075 -0.05
0.225 0.075 -0.05
0.2375 0.075 -0.05
0.25 0.075 -0.05
0.2625 0.075 -0.05
0.275 0.075 -0.05
0.2875 0.075 -0.05
0.3 0.075 -0.05
0.3125 0.075 -0.05
0.325 0.075 -0.05
0.3375 0.075 -0.05
0.35 0.075 -0.05
0.3625 0.075 -0.05
0.375 0.075 -0.05
0.3875 0.075 -0.05
0.4 0.075 -0.05
0.4125 0.075 -0.05
0.425 0.075 -0.05
0.4375 0.075 -0.05
0.45 0.075 -0.05
0.4625 0.075 -0.05
0.475 0.075 -0.05
0.4875 0.075 -0.05
0.5 0.075 -0.05
0.5125 0.075 -0.05
0.525 0.075 -0.05
0.5375 0.075 -0.05
0.55 0.075 -0.05
0.5625 0.075 -0.05
0.575 0.075 -0.05
0.5875 0.075 -0.05
0.6 0.075 -0.05
0.0 0.0875 -0.05
0.0125 0.0875 -0.05
0.025 0.0875 -0.05
0.0375 0.0875 -0.05
0.05 0.0875 -0.05
0.0625 0.0875 -0.05
0.075 0.0875 -0.05
0.0875 0.0875 -0.05
0.1 0.0875 -0.05
0.1125 0.0875 -0.05
0.125 0.0875 -0.05
0.1375 0.0875 -0.05
0.15 0.0875 -0.05
0.1625 0.0875 -0.05
0.175 0.0875 -0.05
0.1875 0.0875 -0.05
0.2 0.0875 -0.05
0.2125 0.0875 -0.05
0.225 0.0875 -0.05
0.2375 0.0875 -0.05
0.25 0.0875 -0.05
0.2625 0.0875 -0.05
0.275 0.0875 -0.05
0.2875 0.0875 -0.05
0.3 0.0875 -0.05
0.3125 0.0875 -0.05
0.325 0.0875 -0.05
0.3375 0.0875 -0.05
0.35 0.0875 -0.05
0.3625 0.0875 -0.05
0.375 0.0875 -0.05
0.3875 0.0875 -0.05
0.4 0.0875 -0.05
0.4125 0.0875 -0.05
0.425 0.0875 -0.05
0.4375 0.0875 -0.05
0.45 0.0875 -0.05
0.4625 0.0875 -0.05
0.475 0.0875 -0.05
0.4875 0.0875 -0.05
0.5 0.0875 -0.05
0.5125 0.0875 -0.05
0.525 0.0875 -0.05
0.5375 0.0875 -0.05
0.55 0.0875 -0.05
0.5625 0.0875 -0.05
0.575 0.0875 -0.05
0.5875 0.0875 -0.05
0.6 0.0875 -0.05
0.0 0.1 -0.05
0.0125 0.1 -0.05
0.025 0.1 -0.05
0.0375 0.1 -0.05
0.05 0.1 -0.05
0.0625 0.1 -0.05
0.075 0.1 -0.05
0.0875 0.1 -0.05
0.1 0.1 -0.05
0.1125 0.1 -0.05
0.125 0.1 -0.05
0.1375 0.1 -0.05
0.15 0.1 -0.05
0.1625 0.1 -0.05
0.175 0.1 -0.05
0.1875 0.1 -0.05
0.2 0.1 -0.05
0.2125 0.1 -0.05
0.225 0.1 -0.05
0.2375 0.1 -0.05
0.25 0.1 -0.05
0.2625 0.1 -0.05
0.275 0.1 -0.05
0.2875 0.1 -0.05
0.3 0.1 -0.05
0.3125 0.1 -0.05
0.325 0.1 -0.05
0.3375 0.1 -0.05
0.35 0.1 -0.05
0.3625 0.1 -0.05
0.375 0.1 -0.05
0.3875 0.1 -0.05
0.4 0.1 -0.05
0.4125 0.1 -0.05
0.425 0.1 -0.05
0.4375 0.1 -0.05
0.45 0.1 -0.05
0.4625 0.1 -0.05
0.475 0.1 -0.05
0.4875 0.1 -0.05
0.5 0.1 -0.05
0.5125 0.1 -0.05
0.525 0.1 -0.05
0.5375 0.1 -0.05
0.55 0.1 -0.05
0.5625 0.1 -0.05
0.575 0.1 -0.05
0.5875 0.1 -0.05
0.6 0.1 -0.05
0.0 0.1125 -0.05
0.0125 0.1125 -0.05
0.025 0.1125 -0.05
0.0375 0.1125 -0.05
0.05 0.1125 -0.05
0.0625 0.1125 -0.05
0.075 0.1125 -0.05
0.0875 0.1125 -0.05
0.1 0.1125 -0.05
0.1125 0.1125 -0.05
0.125 0.1125 -0.05
0.1375 0.1125 -0.05
0.15 0.1125 -0.05
0.1625 0.1125 -0.05
0.175 0.1125 -0.05
0.1875 0.1125 -0.05
0.2 0.1125 -0.05
0.2125 0.1125 -0.05
0.225 0.1125 -0.05
0.2375 0.1125 -0.05
0.25 0.1125 -0.05
0.2625 0.1125 -0.05
0.275 0.1125 -0.05
0.2875 0.1125 -0.05
0.3 0.1125 -0.05
0.3125 0.1125 -0.05
0.325 0.1125 -0.05
0.3375 0.1125 -0.05
0.35 0.1125 -0.05
0.3625 0.1125 -0.05
0.375 0.1125 -0.05
0.3875 0.1125 -0.05
0.4 0.1125 -0.05
0.4125 0.1125 -0.05
0.425 0.1125 -0.05
0.4375 0.1125 -0.05
0.45 0.1125 -0.05
0.4625 0.1125 -0.05
0.475 0.1125 -0.05
0.4875 0.1125 -0.05
0.5 0.1125 -0.05
0.5125 0.1125 -0.05
0.525 0.1125 -0.05
0.5375 0.1125 -0.05
0.55 0.1125 -0.05
0.5625 0.1125 -0.05
0.575 0.1125 -0.05
0.5875 0.1125 -0.05
0.6 0.1125 -0.05
0.0 0.125 -0.05
0.0125 0.125 -0.05
0.025 0.125 -0.05
0.0375 0.125 -0.05
0.05 0.125 -0.05
0.0625 0.125 -0.05
0.075 0.125 -0.05
0.0875 0.125 -0.05
0.1 0.125 -0.05
0.1125 0.125 -0.05
0.125 0.125 -0.05
0.1375 0.125 -0.05
0.15 0.125 -0.05
0.1625 0.125 -0.05
0.175 0.125 -0.05
0.1875 0.125 -0.05
0.2 0.125 -0.05
0.2125 0.125 -0.05
0.225 0.125 -0.05
0.2375 0.125 -0.05
0.25 0.125 -0.05
0.2625 0.125 -0.05
0.275 0.125 -0.05
0.2875 0.125 -0.05
0.3 0.125 -0.05
0.3125 0.125 -0.05
0.325 0.125 -0.05
0.3375 0.125 -0.05
0.35 0.125 -0.05
0.3625 0.125 -0.05
0.375 0.125 -0.05
0.3875 0.125 -0.05
0.4 0.125 -0.05
0.4125 0.125 -0.05
0.425 0.125 -0.05
0.4375 0.125 -0.05
0.45 0.125 -0.05
0.4625 0.125 -0.05
0.475 0.125 -0.05
0.4875 0.125 -0.05
0.5 0.125 -0.05
0.5125 0.125 -0.05
0.525 0.125 -0.05
0.5375 0.125 -0.05
0.55 0.125 -0.05
0.5625 0.125 -0.05
0.575 0.125 -0.05
0.5875 0.125 -0.05
0.6 0.125 -0.05
0.0 0.1375 -0.05
0.0125 0.1375 -0.05
0.025 0.1375 -0.05
0.0375 0.1375 -0.05
0.05 0.1375 -0.05
0.0625 0.1375 -0.05
0.075 0.1375 -0.05
0.0875 0.1375 -0.05
[...]
CELL_DATA 16128
SCALARS P float 1
LOOKUP_TABLE default
100000.00000005781
99999.99999984162
100000.00000042951
99999.99999882937
100000.00000318454
99999.99999133065
100000.00002358988
99999.99993580839
100000.00017464542
99999.99952489737
100000.0012922667
99999.99648559955
100000.00955600872
99999.97402108098
100000.07061127947
99999.80812407186
100000.52123811303
99998.584609436
100003.84054308361
99989.60837619945
100027.55173209062
99940.06841692231
99811.98989460533
118095.4591343056
255154.096327839
545839.8370951513
840950.5552912547
993714.5259255301
1.0380443820134994e6
1.0536632192357231e6
1.0655197929528554e6
1.0767465423249283e6
1.0875439806306046e6
1.0978992740843282e6
1.1077986564458066e6
1.1172304365512086e6
1.1261800425155612e6
1.1346282839527668e6
1.142547754093091e6
1.149909558796994e6
1.1566629203748833e6
1.1627967206553153e6
1.168162152328194e6
1.1730022605343377e6
1.1763936310284697e6
1.1808765855064671e6
1.1787080913883287e6
1.1926812792575823e6
100000.0000000568
99999.99999984418
100000.00000042301
99999.99999884715
100000.00000313696
99999.99999145899
100000.000023246
99999.99993672933
100000.00017218191
99999.99953147826
100000.00127470498
99999.99653243295
100000.00943115923
99999.97435385609
100000.06972466213
99999.81048216572
100000.51499974921
99998.60089402866
100003.79929924112
99989.70587962662
100027.3581984117
99940.22395518886
99812.80757114984
117632.05878879214
253721.49339565664
545209.4670542693
843783.3128023387
999977.8592267686
1.0459898363349121e6
1.0623392598506704e6
1.0745944857304473e6
1.0860859103721196e6
1.0970964465953647e6
1.1076522797477616e6
1.1177570004480395e6
1.1274051478150021e6
1.1365826657210034e6
1.145267757043976e6
1.1534284293226518e6
1.1610295761226327e6
1.1680128641194147e6
1.1743578708587606e6
1.1799059988541738e6
1.1848879425913168e6
1.1883706366180442e6
1.1928932574728103e6
1.1906507429509396e6
1.2048289381924858e6
100000.00000005461
99999.99999985001
100000.0000004072
99999.99999888972
100000.00000302216
99999.99999176718
100000.00002241881
99999.99993894446
100000.00016626494
99999.99954724085
100000.00123284626
99999.9966431789
100000.00913946408
99999.97511797828
100000.06773648513
99999.81561132892
100000.50190924515
99998.63385224574
100003.71768982602
99989.90375113126
100026.89303735348
99941.15825426484
99811.87941380835
116544.80697566953
249186.010229332
537987.006168254
837298.7339055125
995723.682320353
1.04265835045588e6
1.0590392263013807e6
1.0711598591622068e6
1.0824943339090506e6
1.0933373635299236e6
1.103714056922938e6
1.1136275971447933e6
1.1230733651736078e6
1.1320390039785902e6
1.1405049909732223e6
1.1484422183226487e6
1.1558188360709758e6
1.1625811034071702e6
1.16871226072566e6
1.174063442107703e6
1.1788623789582467e6
1.1822087953042935e6
1.1865928332268917e6
1.1842823725385796e6
1.198651705805098e6
100000.00000005148
99999.99999985904
100000.00000038322
99999.99999895487
100000.00000284651
99999.99999224166
100000.00002114038
99999.99994238447
100000.00015702774
99999.99957199444
100000.0011666722
99999.99681960762
100000.0086705106
99999.97636020921
100000.06445846343
99999.82422503734
100000.47937679628
99998.6925214222
100003.56561148279
99990.29570729309
100025.90023598672
99943.29095279654
99813.20122543142
114902.5671247752
242102.04734934052
526918.6534488206
828384.0277800915
991529.1707332447
1.040678102995009e6
1.0575116016215573e6
1.0697030933545528e6
1.0810397828669325e6
1.0918628856979038e6
1.1022095801175004e6
1.1120899087748872e6
1.121504176302422e6
1.1304438247608417e6
1.1388923482801106e6
1.1468231604434769e6
1.1542060334711063e6
1.1609888801514073e6
1.1671532314829656e6
1.1725533556104966e6
1.177401436088699e6
1.1808200934287345e6
1.1852336330482014e6
1.1829446306184528e6
1.1976878243753407e6
100000.00000004713
99999.99999987085
100000.00000035123
99999.99999904184
100000.00000261024
99999.99999288227
100000.00001940371
99999.99994708649
100000.00014431191
99999.99960633667
100000.00107405841
99999.99706897454
100000.00800023579
99999.97815850309
100000.05964336538
99999.83709080206
100000.445075578
99998.7837600681
100003.32354174108
99990.93491496531
100024.24635595165
99946.81928086764
99820.65496278887
112840.90026484466
232701.85133791316
511889.1848915406
816054.9932577892
985577.658264848
1.0377133397484571e6
1.0550365852817374e6
1.0671878175258262e6
1.0784110527750656e6
1.089104018972742e6
1.0993113170282939e6
1.1090461741101453e6
1.1183116552897147e6
1.1271018447615854e6
1.1354027638424058e6
1.143190395243348e6
1.1504366056024556e6
1.1570921357611185e6
1.16313823462123e6
1.1684359005789943e6
1.1731836732887572e6
1.1765385811599707e6
1.1808585180026519e6
1.1785003474161595e6
1.1936535621955276e6
100000.00000004181
99999.99999988527
100000.00000031182
99999.99999914927
100000.00000231712
99999.99999368253
100000.00001722256
99999.9999530306
100000.0001281237
99999.99965039329
100000.00095424506
99999.99739454959
100000.00711630264
99999.98055611199
100000.05314667033
99999.85467495889
100000.39754021972
99998.91208349232
100002.97773951989
99991.86306091257
100021.80662103373
99952.05336331455
99836.27622163354
110528.9505071761
221302.7977594415
493006.33448708453
800170.063171966
977878.6393940402
1.0340703369387891e6
1.0521044834226277e6
1.0642201271349145e6
1.0753072322845354e6
1.0858456937250951e6
1.095889692521365e6
1.1054560135517523e6
1.1145510113366372e6
1.1231720884491182e6
1.131308532527439e6
1.138939649400702e6
1.1460400551735451e6
1.1525638848688402e6
1.158492171617659e6
1.1636928335753921e6
1.1683492568353983e6
1.1716534560613933e6
1.1758954759245645e6
1.1734677016737503e6
1.18915183338238e6
100000.00000003586
99999.99999990169
100000.00000026653
99999.99999927396
100000.00000197528
99999.99999462
100000.00001465325
99999.9999600736
100000.0001088227
99999.99970327927
100000.0008093685
99999.99779133117
100000.00602992481
99999.98352960685
100000.04501113502
99999.87692385777
100000.33672711528
99999.07819457944
100002.52445451773
99993.0963184468
100018.51743497432
99959.24587546926
99859.47809457933
108150.1382136732
208296.59905541642
470427.1815170921
780470.3221234049
968115.105463467
1.0295825527887963e6
1.0486023500186475e6
1.0606800401751972e6
1.0715876726061932e6
1.081922939561842e6
1.0917524744244525e6
1.1010962390709778e6
1.1099635191000677e6
1.1183548934383374e6
1.126262961377634e6
1.1336705807317111e6
1.1405555364122093e6
1.1468760523123336e6
1.1526139281675776e6
1.1576456492914895e6
1.1621414820689037e6
1.1653321828400905e6
1.169445759606562e6
1.1668956532550768e6
1.183220039350771e6
100000.0000000294
99999.99999991978
100000.00000021694
99999.99999941072
100000.00000159955
99999.99999565448
100000.00001180463
99999.99996791924
100000.00008721178
99999.9997628217
100000.0006452858
99999.99824358273
100000.00478320004
99999.98696697922
100000.03553270725
99999.9030626465
100000.26464047327
99999.27699422775
100001.97636296299
99994.60435620254
100014.4436515839
99968.39320527074
99886.9991504621
105884.10093332487
194147.3016295813
444389.3291726963
756699.8159185381
955946.2721838183
1.0241259841934267e6
1.0445155772375248e6
1.0565802560243655e6
1.0672735010643592e6
1.0773616014873646e6
1.0869289955006544e6
1.0959988274418036e6
1.1045830160009728e6
1.1126851629911668e6
1.1203012070426736e6
1.1274177946303815e6
1.1340163898798325e6
1.1400601415125716e6
1.1455329712941481e6
1.150321717212324e6
1.1545864525030777e6
1.157599411296115e6
1.161534729629096e6
1.1588043559729876e6
1.1759129427011136e6
100000.00000002266
99999.99999993842
100000.00000016582
99999.99999955166
100000.00000121059
99999.99999672892
100000.00000883713
99999.99997612071
100000.00006453463
99999.99982555631
100000.00047164557
99999.99872445005
100000.0034507973
99999.99066087017
100000.0252862875
99999.93150069518
100000.1856701809
99999.496403429
100001.36657374569
99996.29703777976
100009.82204446319
99979.0734374246
99913.9285807154
103886.99258598061
179384.4362217443
415231.20809044
728612.6700326322
940956.4612073378
1.0175272352742485e6
1.0398078022783378e6
1.0519129647474731e6
1.0623590312785674e6
1.072152898936329e6
1.081405384375677e6
1.0901429511338775e6
1.0983794942250436e6
1.1061209892916812e6
1.113366170613773e6
1.1201050845361457e6
1.1263227462538532e6
1.1319874021529874e6
1.1370859291206212e6
1.1415167471921968e6
1.1454330626522203e6
1.148151805827706e6
1.151806336299916e6
1.1487859380160377e6
1.1668415359322121e6
100000.00000001617
99999.99999995655
100000.00000011636
99999.99999968852
100000.00000083269
99999.99999777404
100000.00000594556
99999.99998412628
100000.00004235544
99999.99988705218
100000.00030100525
99999.99919833493
100000.0021336615
99999.99432499112
100000.0150838488
99999.95993525916
100000.106345435
99999.71791546028
100000.74750449375
99998.02625076367
100005.06188673411
99990.37648100867
99935.57568574017
102272.11636149079
164588.71848340274
383417.073658803
696006.1018111263
922655.0392250532
1.0095587974124035e6
1.034434546614967e6
1.0466763587859672e6
1.0568478400852473e6
1.0662987397289502e6
1.0751797764611072e6
1.0835212277980633e6
1.0913379484391483e6
1.0986370933523e6
1.1054189971464183e6
1.111676012310692e6
1.117395928028682e6
1.1225518188781484e6
1.1271344475622394e6
1.1310558198947697e6
1.1344679702841225e6
1.136738432094955e6
1.139978291049816e6
1.1365280808495947e6
1.1557520395314635e6
100000.00000001043
99999.999999973
100000.00000007171
99999.99999981235
100000.00000049103
99999.99999871876
100000.00000333399
99999.99999135417
100000.00002233518
99999.99994255388
100000.00014699275
99999.99962613566
100000.00094409587
99999.9976364762
100000.00585449589
99999.9856902578
100000.03438058229
99999.9192748178
100000.18339186939
99999.6066919678
100000.69006371597
100000.98809633974
99949.42067020493
101094.65524503417
150366.4019321557
349559.0741255226
658763.4364437244
900477.6689998506
999917.4498523688
1.0283322680375464e6
1.0408692896604744e6
1.050747913871264e6
1.0598059007660158e6
1.0682550473012421e6
1.0761306205727789e6
1.0834469299114754e6
1.0902102625554837e6
1.0964201526459928e6
1.102068477301239e6
1.1071426354609488e6
1.1116168330661117e6
1.1154817291057296e6
1.1186581029633682e6
1.121294187522819e6
1.1228057257920653e6
1.1253033760925543e6
1.121065813060105e6
1.1416343753281496e6
100000.00000000543
99999.99999998628
100000.00000003394
99999.99999991576
100000.0000002068
99999.99999950109
100000.0000011789
99999.99999729621
100000.00000593934
99999.99998783585
100000.00002181627
99999.99997252799
99999.9999844857
100000.00029806283
99999.9984627546
100000.00624715321
99999.97712484031
100000.0790011254
99999.73710915018
100000.85418432909
99997.24206065571
100009.45453319866
99956.17227579582
100345.19063455562
137309.4966016213
314431.28279156587
616908.1802476421
873800.299926897
988201.7021820628
1.021407035474552e6
1.0344894755585269e6
1.0440729369190807e6
1.0526886637040945e6
1.0606426210321009e6
1.0679776281090241e6
1.0747055089640827e6
1.0808287573432364e6
1.0863425448726097e6
1.0912341331367518e6
1.0954860662133088e6
1.0990694346129913e6
1.1019721340482e6
1.1041236374677063e6
1.1056784560513927e6
1.1061153748263128e6
1.1075857302509975e6
1.1022754821949962e6
1.1246116318497595e6
100000.00000000173
99999.99999999699
100000.00000000562
99999.9999999935
99999.99999999485
100000.00000008015
99999.99999959805
100000.00000161244
99999.9999941491
100000.00002005552
99999.99993372416
100000.00021351104
99999.99932484771
100000.00210496367
99999.9935091946
100000.01983991046
99999.93978569566
100000.18169652396
99999.45431113394
100001.63302154504
99995.12164050806
100014.58211341605
99959.27383635848
99956.0663625303
125941.04712895093
278969.4906886063
570666.3128656015
841970.5303503673
973888.0219580999
1.0135181648239804e6
1.0275294248178364e6
1.0368420917278714e6
1.0449697884340369e6
1.0523641409969334e6
1.0590806517328643e6
1.0651262870806733e6
1.0704954944574153e6
1.075173236907004e6
1.0791340849846904e6
1.0823443076506164e6
1.0847551151713866e6
1.0863259241954328e6
1.0869581554604264e6
1.086753554568511e6
1.0851717270168744e6
1.0843639206048262e6
1.0763809973385567e6
1.09991193949973e6
99999.99999999901
100000.00000000406
99999.99999998657
100000.00000004425
99999.99999985925
100000.00000044321
99999.99999862834
100000.00000419929
99999.99998726076
100000.00003836278
99999.99988517509
100000.00034194019
99999.99898606449
100000.00299576297
99999.99117558448
100000.02592706733
99999.92398675144
100000.22246003381
99999.34989777184
100001.89753354558
99994.47265820827
100015.84627070698
99963.00295157456
99821.64104764097
116649.39300497355
244249.95095014176
520531.14713135577
804362.1819156777
956309.5749256999
1.0044558192950068e6
1.0199700024959694e6
1.0290793117176208e6
1.0366814767630622e6
1.0434534698564055e6
1.0494733696710952e6
1.054741090106096e6
1.0592380552257185e6
1.0629321728634646e6
1.065776392062243e6
1.0677096710146707e6
1.0686525924940102e6
1.068528139997938e6
1.0672075596528675e6
1.064782761003182e6
1.0607767026305508e6
1.0574660994889678e6
1.046861881273418e6
1.0732231420536404e6
99999.99999999753
100000.00000000781
99999.99999997667
100000.00000006965
99999.99999979418
100000.00000060683
99999.99999821975
100000.000005204
99999.9999848381
100000.0000440469
99999.9998723602
100000.00036905825
99999.99893497278
100000.00306821766
99999.99117396427
100000.02535623229
99999.92723499527
100000.20861877358
99999.4023561433
100001.71073605772
99995.115359269
100013.64168998269
99970.30797439048
99828.0141350145
109623.33315653558
211440.36381100988
467321.28204899456
760457.6065244698
934643.4313884296
993910.9342579287
1.0117701157830972e6
1.0208112287713864e6
1.0278656311315481e6
1.033957834084215e6
1.0392065525407275e6
1.0436032012207002e6
1.0471100409962011e6
1.04966811374218e6
1.0511929200927436e6
1.051570399997508e6
1.0506405603921143e6
1.0482061202654365e6
1.0439416614083297e6
1.0375946832301985e6
1.0281383872159426e6
1.0169667171249631e6
994655.9296731383
1.0126189352920437e6
99999.99999999686
100000.00000000912
99999.99999997424
100000.00000007467
99999.99999978601
100000.00000061249
99999.99999825151
100000.00000498052
99999.99998584426
100000.0000401512
99999.99988633372
100000.00032118786
99999.99909402986
100000.00255103146
99999.99282899359
100000.02012401144
99999.94362056178
100000.15768582794
99999.55973956481
100001.2267106543
99996.59706917229
100009.18128116867
99981.28081345929
99882.58597744902
104808.98614183567
181717.19972799104
412218.5990594982
709959.2388117607
907915.7906663975
981436.6158715967
1.0028506230613516e6
1.0120631273787643e6
1.01857334455024e6
1.0239386740186404e6
1.0283504720872038e6
1.0317929925351967e6
1.0342042251920819e6
1.0354901701595646e6
1.035516785968109e6
1.0341019110022711e6
1.0309941805460084e6
1.0258722802163529e6
1.0182682649756268e6
1.0077995388739659e6
993471.5512720584
977000.9869417149
949279.6516481385
972324.7470400393
99999.99999999693
100000.0000000083
99999.99999997659
100000.00000006592
99999.99999981586
100000.00000051531
99999.99999856336
100000.00000399524
99999.999988918
100000.00003065304
99999.9999154577
100000.00023244032
99999.99936308779
100000.00173874006
99999.99527287822
100000.01279196818
99999.9655676985
100000.09211026046
99999.75539592224
100000.64362290315
99998.33071717898
100004.12117471539
99993.39175074511
99931.52918292816
101912.21471932689
156144.93646311562
356770.4883765116
652926.5968490042
875039.3819594982
966402.5517663701
993070.1380967802
1.0028517364967498e6
1.0088627963265439e6
1.0134706755194379e6
1.0169939168706539e6
1.0194158977524432e6
1.0206465596495254e6
1.020547666773806e6
1.0189200956609056e6
1.0154829902541101e6
1.0098203621303568e6
1.00131916499012e6
988948.6725882775
971130.0535435507
944175.9383134233
903194.2635020314
824707.1745785255
696477.7773323067
99999.99999999764
100000.00000000668
99999.99999998182
100000.00000005009
99999.99999986393
100000.0000003711
99999.99999899382
100000.00000271533
99999.99999270824
100000.00001946578
99999.99994838216
100000.00013578957
99999.99964617842
100000.0009111703
99999.99768806744
100000.0057537367
99999.98605250679
100000.03255235411
99999.92840149465
100000.14152542962
99999.78444440836
99999.99010550213
100003.19980618753
99958.89953918553
100461.61187862048
135518.61921752538
302838.6827644663
589925.6214114159
834900.9195576668
947948.7024646966
982190.393977175
993173.6058462696
998795.3763542722
1.0026397358457582e6
1.0052427813398498e6
1.006602655337854e6
1.0066022582587665e6
1.0050563510621141e6
1.0017012930384976e6
996154.0913002238
987841.9622240337
975900.9564656897
958897.4225269374
934609.885289714
898500.4068575529
844645.4321304022
753619.4377461978
617342.2893803774
99999.99999999814
100000.00000000455
99999.99999998773
100000.00000003264
99999.99999991387
100000.00000022615
99999.99999941229
100000.00000151155
99999.99999616167
100000.00000958322
99999.99997658693
100000.00005550041
99999.99987414392
100000.00026561567
99999.9995111515
100000.00062006485
100000.00046405962
99999.99223063729
100000.04079861633
99999.82958738308
100000.6442328195
99997.67968109297
100008.31511964559
99971.28853494934
99924.11897710971
120190.91973264192
252478.4190572868
522163.0739814149
786514.76202899
924951.0785074213
969828.884522584
982987.0229157913
988429.0555311869
991538.6541975454
993214.8350812229
993501.4441980764
992260.2296171046
989269.357177385
984208.6247088342
976618.5950152064
965821.7972018588
950818.7883686556
930028.7832198368
901131.44185349
859893.7247968346
801390.5496016166
712582.1256358823
591989.1890173261
99999.99999999898
100000.00000000274
99999.99999999291
100000.0000000178
99999.99999995546
100000.00000010921
99999.99999973869
100000.00000060222
99999.99999868305
100000.00000262349
99999.999995701
100000.00000330803
100000.00001570591
99999.99988466475
100000.00052666271
99999.9979443252
100000.00741113021
99999.97453872874
100000.08467865427
99999.7248839562
100000.87840316314
99997.23246276937
100008.52212290837
99979.71630159556
99835.26734286774
109941.79491423731
207739.20196140558
451564.4739102098
729247.7922273653
896019.9688472442
955397.1207415912
972184.4518187399
977808.0036552546
980260.6863408122
981032.2281031169
980265.084723231
977816.869165468
973440.4426297003
966779.8584232234
957333.2147255577
944381.4419250534
926901.8594888458
903364.3641388908
871665.487657648
828338.0713910015
769833.940197482
688175.903951438
584947.8624786867
99999.99999999932
100000.0000000013
99999.9999999968
100000.00000000733
99999.99999998392
100000.00000003203
99999.99999994569
100000.00000005194
100000.00000013191
99999.99999885673
100000.00000534052
99999.99997914424
100000.00007459398
99999.99974691863
100000.0008285271
99999.99735763612
100000.00825721055
99999.97462346185
100000.07688315243
99999.77001641966
100000.6798035607
99998.01725493227
100005.56366786722
99989.27522441163
99888.07759523082
103976.24928075234
170390.26733888092
380749.78676434566
663101.8540105959
859560.8359434687
938026.4824425206
960551.5239023708
966947.0128625332
968891.5176694094
968813.7131811107
967041.2187663362
963455.9812534241
957800.0981528342
949704.0107071543
938657.609206987
923954.0831872354
904628.6634997881
879317.2416000129
846264.3938033074
802841.1071225348
746683.4745931779
673223.4132635165
584837.2304551338
99999.99999999965
100000.00000000033
99999.99999999908
100000.00000000116
99999.9999999997
99999.9999999919
100000.00000004552
99999.99999980972
100000.00000069657
99999.99999761616
100000.00000779533
99999.99997531032
100000.00007626637
99999.99976921808
100000.00068583945
99999.99799560553
100000.00576300696
99999.9837072295
100000.04522272626
99999.87711736362
100000.32520567435
99999.17195502824
100001.90417782089
99998.47770163155
99943.01313285631
101105.36308981538
141587.81483822723
312868.59964353155
589014.4614653592
813938.78585853
916494.1982598637
947708.8575618527
955808.5427682089
957499.2433347331
956666.4526640757
953964.3759953551
949338.3665562471
942539.8698038851
933205.314680569
920844.1490262076