# vtk DataFile Version 2.0
JuliaCFD
ASCII
DATASET UNSTRUCTURED_GRID

POINTS 32898 float
0.0 0.0 -0.05
0.0125 0.0 -0.05
0.025 0.0 -0.05
0.0375 0.0 -0.05
0.05 0.0 -0.05
0.0625 0.0 -0.05
0.075 0.0 -0.05
0.0875 0.0 -0.05
0.1 0.0 -0.05
0.1125 0.0 -0.05
0.125 0.0 -0.05
0.1375 0.0 -0.05
0.15 0.0 -0.05
0.1625 0.0 -0.05
0.175 0.0 -0.05
0.1875 0.0 -0.05
0.2 0.0 -0.05
0.2125 0.0 -0.05
0.225 0.0 -0.05
0.2375 0.0 -0.05
0.25 0.0 -0.05
0.2625 0.0 -0.05
0.275 0.0 -0.05
0.2875 0.0 -0.05
0.3 0.0 -0.05
0.3125 0.0 -0.05
0.325 0.0 -0.05
0.3375 0.0 -0.05
0.35 0.0 -0.05
0.3625 0.0 -0.05
0.375 0.0 -0.05
0.3875 0.0 -0.05
0.4 0.0 -0.05
0.4125 0.0 -0.05
0.425 0.0 -0.05
0.4375 0.0 -0.05
0.45 0.0 -0.05
0.4625 0.0 -0.05
0.475 0.0 -0.05
0.4875 0.0 -0.05
0.5 0.0 -0.05
0.5125 0.0 -0.05
0.525 0.0 -0.05
0.5375 0.0 -0.05
0.55 0.0 -0.05
0.5625 0.0 -0.05
0.575 0.0 -0.05
0.5875 0.0 -0.05
0.6 0.0 -0.05
0.0 0.0125 -0.05
0.0125 0.0125 -0.05
0.025 0.0125 -0.05
0.0375 0.0125 -0.05
0.05 0.0125 -0.05
0.0625 0.0125 -0.05
0.075 0.0125 -0.05
0.0875 0.0125 -0.05
0.1 0.0125 -0.05
0.1125 0.0125 -0.05
0.125 0.0125 -0.05
0.1375 0.0125 -0.05
0.15 0.0125 -0.05
0.1625 0.0125 -0.05
0.175 0.0125 -0.05
0.1875 0.0125 -0.05
0.2 0.0125 -0.05
0.2125 0.0125 -0.05
0.225 0.0125 -0.05
0.2375 0.0125 -0.05
0.25 0.0125 -0.05
0.2625 0.0125 -0.05
0.275 0.0125 -0.05
0.2875 0.0125 -0.05
0.3 0.0125 -0.05
0.3125 0.0125 -0.05
0.325 0.0125 -0.05
0.3375 0.0125 -0.05
0.35 0.0125 -0.05
0.3625 0.0125 -0.05
0.375 0.0125 -0.05
0.3875 0.0125 -0.05
0.4 0.0125 -0.05
0.4125 0.0125 -0.05
0.425 0.0125 -0.05
0.4375 0.0125 -0.05
0.45 0.0125 -0.05
0.4625 0.0125 -0.05
0.475 0.0125 -0.05
0.4875 0.0125 -0.05
0.5 0.0125 -0.05
0.5125 0.0125 -0.05
0.525 0.0125 -0.05
0.5375 0.0125 -0.05
0.55 0.0125 -0.05
0.5625 0.0125 -0.05
0.575 0.0125 -0.05
0.5875 0.0125 -0.05
0.6 0.0125 -0.05
0.0 0.025 -0.05
0.0125 0.025 -0.05
0.025 0.025 -0.05
0.0375 0.025 -0.05
0.05 0.025 -0.05
0.0625 0.025 -0.05
0.075 0.025 -0.05
0.0875 0.025 -0.05
0.1 0.025 -0.05
0.1125 0.025 -0.05
0.125 0.025 -0.05
0.1375 0.025 -0.05
0.15 0.025 -0.05
0.1625 0.025 -0.05
0.175 0.025 -0.05
0.1875 0.025 -0.05
0.2 0.025 -0.05
0.2125 0.025 -0.05
0.225 0.025 -0.05
0.2375 0.025 -0.05
0.25 0.025 -0.05
0.2625 0.025 -0.05
0.275 0.025 -0.05
0.2875 0.025 -0.05
0.3 0.025 -0.05
0.3125 0.025 -0.05
0.325 0.025 -0.05
0.3375 0.025 -0.05
0.35 0.025 -0.05
0.3625 0.025 -0.05
0.375 0.025 -0.05
0.3875 0.025 -0.05
0.4 0.025 -0.05
0.4125 0.025 -0.05
0.425 0.025 -0.05
0.4375 0.025 -0.05
0.45 0.025 -0.05
0.4625 0.025 -0.05
0.475 0.025 -0.05
0.4875 0.025 -0.05
0.5 0.025 -0.05
0.5125 0.025 -0.05
0.525 0.025 -0.05
0.5375 0.025 -0.05
0.55 0.025 -0.05
0.5625 0.025 -0.05
0.575 0.025 -0.05
0.5875 0.025 -0.05
0.6 0.025 -0.05
0.0 0.0375 -0.05
0.0125 0.0375 -0.05
0.025 0.0375 -0.05
0.0375 0.0375 -0.05
0.05 0.0375 -0.05
0.0625 0.0375 -0.05
0.075 0.0375 -0.05
0.0875 0.0375 -0.05
0.1 0.0375 -0.05
0.1125 0.0375 -0.05
0.125 0.0375 -0.05
0.1375 0.0375 -0.05
0.15 0.0375 -0.05
0.1625 0.0375 -0.05
0.175 0.0375 -0.05
0.1875 0.0375 -0.05
0.2 0.0375 -0.05
0.2125 0.0375 -0.05
0.225 0.0375 -0.05
0.2375 0.0375 -0.05
0.25 0.0375 -0.05
0.2625 0.0375 -0.05
0.275 0.0375 -0.05
0.2875 0.0375 -0.05
0.3 0.0375 -0.05
0.3125 0.0375 -0.05
0.325 0.0375 -0.05
0.3375 0.0375 -0.05
0.35 0.0375 -0.05
0.3625 0.0375 -0.05
0.375 0.0375 -0.05
0.3875 0.0375 -0.05
0.4 0.0375 -0.05
0.4125 0.0375 -0.05
0.425 0.0375 -0.05
0.4375 0.0375 -0.05
0.45 0.0375 -0.05
0.4625 0.0375 -0.05
0.475 0.0375 -0.05
0.4875 0.0375 -0.05
0.5 0.0375 -0.05
0.5125 0.0375 -0.05
0.525 0.0375 -0.05
0.5375 0.0375 -0.05
0.55 0.0375 -0.05
0.5625 0.0375 -0.05
0.575 0.0375 -0.05
0.5875 0.0375 -0.05
0.6 0.0375 -0.05
0.0 0.05 -0.05
0.0125 0.05 -0.05
0.025 0.05 -0.05
0.0375 0.05 -0.05
0.05 0.05 -0.05
0.0625 0.05 -0.05
0.075 0.05 -0.05
0.0875 0.05 -0.05
0.1 0.05 -0.05
0.1125 0.05 -0.05
0.125 0.05 -0.05
0.1375 0.05 -0.05
0.15 0.05 -0.05
0.1625 0.05 -0.05
0.175 0.05 -0.05
0.1875 0.05 -0.05
0.2 0.05 -0.05
0.2125 0.05 -0.05
0.225 0.05 -0.05
0.2375 0.05 -0.05
0.25 0.05 -0.05
0.2625 0.05 -0.05
0.275 0.05 -0.05
0.2875 0.05 -0.05
0.3 0.05 -0.05
0.3125 0.05 -0.05
0.325 0.05 -0.05
0.3375 0.05 -0.05
0.35 0.05 -0.05
0.3625 0.05 -0.05
0.375 0.05 -0.05
0.3875 0.05 -0.05
0.4 0.05 -0.05
0.4125 0.05 -0.05
0.425 0.05 -0.05
0.4375 0.05 -0.05
0.45 0.05 -0.05
0.4625 0.05 -0.05
0.475 0.05 -0.05
0.4875 0.05 -0.05
0.5 0.05 -0.05
0.5125 0.05 -0.05
0.525 0.05 -0.05
0.5375 0.05 -0.05
0.55 0.05 -0.05
0.5625 0.05 -0.05
0.575 0.05 -0.05
0.5875 0.05 -0.05
0.6 0.05 -0.05
0.0 0.0625 -0.05
0.0125 0.0625 -0.05
0.025 0.0625 -0.05
0.0375 0.0625 -0.05
0.05 0.0625 -0.05
0.0625 0.0625 -0.05
0.075 0.0625 -0.05
0.0875 0.0625 -0.05
0.1 0.0625 -0.05
0.1125 0.0625 -0.05
0.125 0.0625 -0.05
0.1375 0.0625 -0.05
0.15 0.0625 -0.05
0.1625 0.0625 -0.05
0.175 0.0625 -0.05
0.1875 0.0625 -0.05
0.2 0.0625 -0.05
0.2125 0.0625 -0.05
0.225 0.0625 -0.05
0.2375 0.0625 -0.05
0.25 0.0625 -0.05
0.2625 0.0625 -0.05
0.275 0.0625 -0.05
0.2875 0.0625 -0.05
0.3 0.0625 -0.05
0.3125 0.0625 -0.05
0.325 0.0625 -0.05
0.3375 0.0625 -0.05
0.35 0.0625 -0.05
0.3625 0.0625 -0.05
0.375 0.0625 -0.05
0.3875 0.0625 -0.05
0.4 0.0625 -0.05
0.4125 0.0625 -0.05
0.425 0.0625 -0.05
0.4375 0.0625 -0.05
0.45 0.0625 -0.05
0.4625 0.0625 -0.05
0.475 0.0625 -0.05
0.4875 0.0625 -0.05
0.5 0.0625 -0.05
0.5125 0.0625 -0.05
0.525 0.0625 -0.05
0.5375 0.0625 -0.05
0.55 0.0625 -0.05
0.5625 0.0625 -0.05
0.575 0.0625 -0.05
0.5875 0.0625 -0.05
0.6 0.0625 -0.05
0.0 0.075 -0.05
0.0125 0.075 -0.05
0.025 0.075 -0.05
0.0375 0.075 -0.05
0.05 0.075 -0.05
0.0625 0.075 -0.05
0.075 0.075 -0.05
0.0875 0.075 -0.05
0.1 0.075 -0.05
0.1125 0.075 -0.05
0.125 0.075 -0.05
0.1375 0.075 -0.05
0.15 0.075 -0.05
0.1625 0.075 -0.05
0.175 0.075 -0.05
0.1875 0.075 -0.05
0.2 0.075 -0.05
0.2125 0.075 -0.05
0.225 0.075 -0.05
0.2375 0.075 -0.05
0.25 0.075 -0.05
0.2625 0.075 -0.05
0.275 0.075 -0.05
0.2875 0.075 -0.05
0.3 0.075 -0.05
0.3125 0.075 -0.05
0.325 0.075 -0.05
0.3375 0.075 -0.05
0.35 0.075 -0.05
0.3625 0.075 -0.05
0.375 0.075 -0.05
0.3875 0.075 -0.05
0.4 0.075 -0.05
0.4125 0.075 -0.05
0.425 0.075 -0.05
0.4375 0.075 -0.05
0.45 0.075 -0.05
0.4625 0.075 -0.05
0.475 0.075 -0.05
0.4875 0.075 -0.05
0.5 0.075 -0.05
0.5125 0.075 -0.05
0.525 0.075 -0.05
0.5375 0.075 -0.05
0.55 0.075 -0.05
0.5625 0.075 -0.05
0.575 0.075 -0.05
0.5875 0.075 -0.05
0.6 0.075 -0.05
0.0 0.0875 -0.05
0.0125 0.0875 -0.05
0.025 0.0875 -0.05
0.0375 0.0875 -0.05
0.05 0.0875 -0.05
0.0625 0.0875 -0.05
0.075 0.0875 -0.05
0.0875 0.0875 -0.05
0.1 0.0875 -0.05
0.1125 0.0875 -0.05
0.125 0.0875 -0.05
0.1375 0.0875 -0.05
0.15 0.0875 -0.05
0.1625 0.0875 -0.05
0.175 0.0875 -0.05
0.1875 0.0875 -0.05
0.2 0.0875 -0.05
0.2125 0.0875 -0.05
0.225 0.0875 -0.05
0.2375 0.0875 -0.05
0.25 0.0875 -0.05
0.2625 0.0875 -0.05
0.275 0.0875 -0.05
0.2875 0.0875 -0.05
0.3 0.0875 -0.05
0.3125 0.0875 -0.05
0.325 0.0875 -0.05
0.3375 0.0875 -0.05
0.35 0.0875 -0.05
0.3625 0.0875 -0.05
0.375 0.0875 -0.05
0.3875 0.0875 -0.05
0.4 0.0875 -0.05
0.4125 0.0875 -0.05
0.425 0.0875 -0.05
0.4375 0.0875 -0.05
0.45 0.0875 -0.05
0.4625 0.0875 -0.05
0.475 0.0875 -0.05
0.4875 0.0875 -0.05
0.5 0.0875 -0.05
0.5125 0.0875 -0.05
0.525 0.0875 -0.05
0.5375 0.0875 -0.05
0.55 0.0875 -0.05
0.5625 0.0875 -0.05
0.575 0.0875 -0.05
0.5875 0.0875 -0.05
0.6 0.0875 -0.05
0.0 0.1 -0.05
0.0125 0.1 -0.05
0.025 0.1 -0.05
0.0375 0.1 -0.05
0.05 0.1 -0.05
0.0625 0.1 -0.05
0.075 0.1 -0.05
0.0875 0.1 -0.05
0.1 0.1 -0.05
0.1125 0.1 -0.05
0.125 0.1 -0.05
0.1375 0.1 -0.05
0.15 0.1 -0.05
0.1625 0.1 -0.05
0.175 0.1 -0.05
0.1875 0.1 -0.05
0.2 0.1 -0.05
0.2125 0.1 -0.05
0.225 0.1 -0.05
0.2375 0.1 -0.05
0.25 0.1 -0.05
0.2625 0.1 -0.05
0.275 0.1 -0.05
0.2875 0.1 -0.05
0.3 0.1 -0.05
0.3125 0.1 -0.05
0.325 0.1 -0.05
0.3375 0.1 -0.05
0.35 0.1 -0.05
0.3625 0.1 -0.05
0.375 0.1 -0.05
0.3875 0.1 -0.05
0.4 0.1 -0.05
0.4125 0.1 -0.05
0.425 0.1 -0.05
0.4375 0.1 -0.05
0.45 0.1 -0.05
0.4625 0.1 -0.05
0.475 0.1 -0.05
0.4875 0.1 -0.05
0.5 0.1 -0.05
0.5125 0.1 -0.05
0.525 0.1 -0.05
0.5375 0.1 -0.05
0.55 0.1 -0.05
0.5625 0.1 -0.05
0.575 0.1 -0.05
0.5875 0.1 -0.05
0.6 0.1 -0.05
0.0 0.1125 -0.05
0.0125 0.1125 -0.05
0.025 0.1125 -0.05
0.0375 0.1125 -0.05
0.05 0.1125 -0.05
0.0625 0.1125 -0.05
0.075 0.1125 -0.05
0.0875 0.1125 -0.05
0.1 0.1125 -0.05
0.1125 0.1125 -0.05
0.125 0.1125 -0.05
0.1375 0.1125 -0.05
0.15 0.1125 -0.05
0.1625 0.1125 -0.05
0.175 0.1125 -0.05
0.1875 0.1125 -0.05
0.2 0.1125 -0.05
0.2125 0.1125 -0.05
0.225 0.1125 -0.05
0.2375 0.1125 -0.05
0.25 0.1125 -0.05
0.2625 0.1125 -0.05
0.275 0.1125 -0.05
0.2875 0.1125 -0.05
0.3 0.1125 -0.05
0.3125 0.1125 -0.05
0.325 0.1125 -0.05
0.3375 0.1125 -0.05
0.35 0.1125 -0.05
0.3625 0.1125 -0.05
0.375 0.1125 -0.05
0.3875 0.1125 -0.05
0.4 0.1125 -0.05
0.4125 0.1125 -0.05
0.425 0.1125 -0.05
0.4375 0.1125 -0.05
0.45 0.1125 -0.05
0.4625 0.1125 -0.05
0.475 0.1125 -0.05
0.4875 0.1125 -0.05
0.5 0.1125 -0.05
0.5125 0.1125 -0.05
0.525 0.1125 -0.05
0.5375 0.1125 -0.05
0.55 0.1125 -0.05
0.5625 0.1125 -0.05
0.575 0.1125 -0.05
0.5875 0.1125 -0.05
0.6 0.1125 -0.05
0.0 0.125 -0.05
0.0125 0.125 -0.05
0.025 0.125 -0.05
0.0375 0.125 -0.05
0.05 0.125 -0.05
0.0625 0.125 -0.05
0.075 0.125 -0.05
0.0875 0.125 -0.05
0.1 0.125 -0.05
0.1125 0.125 -0.05
0.125 0.125 -0.05
0.1375 0.125 -0.05
0.15 0.125 -0.05
0.1625 0.125 -0.05
0.175 0.125 -0.05
0.1875 0.125 -0.05
0.2 0.125 -0.05
0.2125 0.125 -0.05
0.225 0.125 -0.05
0.2375 0.125 -0.05
0.25 0.125 -0.05
0.2625 0.125 -0.05
0.275 0.125 -0.05
0.2875 0.125 -0.05
0.3 0.125 -0.05
0.3125 0.125 -0.05
0.325 0.125 -0.05
0.3375 0.125 -0.05
0.35 0.125 -0.05
0.3625 0.125 -0.05
0.375 0.125 -0.05
0.3875 0.125 -0.05
0.4 0.125 -0.05
0.4125 0.125 -0.05
0.425 0.125 -0.05
0.4375 0.125 -0.05
0.45 0.125 -0.05
0.4625 0.125 -0.05
0.475 0.125 -0.05
0.4875 0.125 -0.05
0.5 0.125 -0.05
0.5125 0.125 -0.05
0.525 0.125 -0.05
0.5375 0.125 -0.05
0.55 0.125 -0.05
0.5625 0.125 -0.05
0.575 0.125 -0.05
0.5875 0.125 -0.05
0.6 0.125 -0.05
0.0 0.1375 -0.05
0.0125 0.1375 -0.05
0.025 0.1375 -0.05
0.0375 0.1375 -0.05
0.05 0.1375 -0.05
0.0625 0.1375 -0.05
0.075 0.1375 -0.05
0.0875 0.1375 -0.05
[...]
CELL_DATA 16128
SCALARS P float 1
LOOKUP_TABLE default
100000.00000005472
99999.99999984984
100000.00000040788
99999.99999888663
100000.00000303348
99999.99999172892
100000.00002254163
99999.99993856212
100000.00016741944
99999.99954382102
100000.00124280086
99999.9966146358
100000.00922015257
99999.97489314167
100000.06835292449
99999.81395532172
100000.50623136545
99998.62307558981
100003.74242134347
99989.85638424684
100026.93707188821
99941.35386460715
99810.44901660457
115748.41833320139
245725.71064529335
532085.9921697816
831327.0299446164
990734.3928919196
1.037679547852674e6
1.0536996352338367e6
1.0656080943316966e6
1.0768581585212843e6
1.087676748469135e6
1.0980516778457214e6
1.1079688578319422e6
1.1174165127887803e6
1.1263801265233695e6
1.134840629975208e6
1.1427707644665493e6
1.1501417953000083e6
1.156903095385324e6
1.163043706677993e6
1.1684148993758778e6
1.1732599205777869e6
1.176655071108127e6
1.1811414573086067e6
1.178974002819083e6
1.1929506975920247e6
100000.00000005373
99999.99999985252
100000.00000040076
99999.99999890619
100000.00000298065
99999.99999187216
100000.00002215536
99999.9999396038
100000.0001646162
99999.99955135908
100000.00122255397
99999.99666896382
100000.00907451294
99999.9752831667
100000.06731002094
99999.8167358648
100000.49886306148
99998.64235370532
100003.69329116188
99989.9746946101
100026.69030751404
99941.57398532999
99813.35064767975
115324.7387306088
244313.69860569047
531356.5209901178
833992.9813662162
996901.3465742313
1.0455966534442971e6
1.0623715312734637e6
1.074688059022467e6
1.0862068145447867e6
1.0972399550505544e6
1.1078156496238864e6
1.1179378375251326e6
1.1276012956242883e6
1.136792168690233e6
1.1454888422041999e6
1.153659496346592e6
1.1612691942811043e6
1.168259759246544e6
1.1746109352619108e6
1.1801642122999358e6
1.1851505008421836e6
1.1886364697259192e6
1.1931621079466587e6
1.1909202885447275e6
1.2051019509136633e6
100000.00000005134
99999.99999985906
100000.00000038333
99999.99999895296
100000.00000285392
99999.99999221445
100000.00002123143
99999.99994209506
100000.00015791152
99999.99956936475
100000.00117431968
99999.99679781303
100000.00873146199
99999.9761928737
100000.06490929144
99999.82303413944
100000.48245786947
99998.68471858799
100003.58496487202
99990.24832560163
100026.01671050974
99942.92298164626
99816.10201864963
114339.3886345364
239930.11976352942
524166.26027341915
827400.5775183991
992560.2734927641
1.0422434276228404e6
1.0590662812634977e6
1.0712497610238814e6
1.0826115823717664e6
1.0934772731629256e6
1.103873968338473e6
1.113805142952327e6
1.1232663841516033e6
1.1322455260350446e6
1.140723230147019e6
1.1486705671084593e6
1.1560558628347279e6
1.1628255387383327e6
1.1689630046761045e6
1.1743194855383786e6
1.17912292207694e6
1.1824727760223742e6
1.1868599722530437e6
1.1845503138590804e6
1.1989232931277002e6
100000.00000004772
99999.9999998685
100000.00000035757
99999.99999902328
100000.00000266274
99999.99999273346
100000.00001982486
99999.99994590254
100000.00014762227
99999.9995971268
100000.00109954811
99999.99699878797
100000.00819249052
99999.97763467982
100000.06106282666
99999.83326573734
100000.4553244688
99998.75645812298
100003.39582549823
99990.74489416069
100024.73779425705
99945.63342620748
99822.22642949708
112855.4817179451
233086.24538849996
513124.5226533463
818266.635731558
988192.8747122651
1.0402166148524771e6
1.0575287035624876e6
1.0697890757515298e6
1.0811547334278647e6
1.0920013318115997e6
1.1023685314694392e6
1.112266800700882e6
1.1216967267092392e6
1.1306499902590732e6
1.1391102992244842e6
1.1470512644278123e6
1.1544428461355139e6
1.1612331281211285e6
1.1674038156689801e6
1.172809273443945e6
1.1776618890792923e6
1.1810840300385235e6
1.1855007585842693e6
1.1832125759978504e6
1.197959545774544e6
100000.00000004335
99999.99999988105
100000.00000032363
99999.99999911588
100000.0000024105
99999.99999342093
100000.00001795305
99999.99995099487
100000.00013378233
99999.99963470332
100000.00099764061
99999.99727482852
100000.0074457416
99999.97965198722
100000.0556211934
99999.84792175172
100000.41591436262
99998.86225557461
100003.11234927812
99991.50142386081
100022.76045958386
99949.85505267182
99834.25674346712
111000.7192983444
224017.73630002807
498142.9798507276
805644.3776522544
982003.8038916896
1.0371903936473342e6
1.055044081975678e6
1.0672711690039702e6
1.0785243041622327e6
1.089241077889733e6
1.0994690664070658e6
1.1092219750097385e6
1.1185031742242752e6
1.1273070041422858e6
1.1356197130090492e6
1.143417491134376e6
1.1506724013074774e6
1.1573353624984866e6
1.1633878022103691e6
1.168690822010341e6
1.173443160017852e6
1.1768016038856234e6
1.1811247703183899e6
1.1787674613328078e6
1.1939245842655855e6
100000.00000003778
99999.99999989592
100000.00000028264
99999.99999922814
100000.00000210367
99999.99999426067
100000.00001565601
99999.99995727667
100000.00011661195
99999.99968161312
100000.00086955524
99999.99762435115
100000.00649258406
99999.98224942427
100000.04854842671
99999.86716448843
100000.36360983673
99999.00427572144
100002.72727151608
99992.54191538769
100020.00620060536
99955.82499770015
99852.92252845658
108933.53896672132
213044.11415583367
479344.0695647642
789395.0773773724
973989.800942842
1.0334619345830983e6
1.0520990162507545e6
1.0643005704621368e6
1.0754187830602694e6
1.0859813848608488e6
1.0960462685358946e6
1.1056307561276387e6
1.1147415282337847e6
1.1233762613335878e6
1.13152448515278e6
1.1391657255924873e6
1.1462748049471998e6
1.1528060452718812e6
1.1587406640535204e6
1.1639466905216998e6
1.1686077036850012e6
1.1719154901615737e6
1.1761607802227775e6
1.1737339117979682e6
1.1894220916304316e6
100000.00000003165
99999.9999999127
100000.0000002366
99999.99999935536
100000.00000175429
99999.99999522144
100000.00001301625
99999.99996453084
100000.00009668086
99999.99973637081
100000.00071913592
99999.9980374941
100000.00535804083
99999.985364367
100000.03999838575
99999.89062578669
100000.29925648784
99999.18070971365
100002.24393230448
99993.86254983036
100016.46644160294
99963.67830840439
99876.78498625028
106824.05162782282
200558.1427679566
456903.6578250536
769271.4912729363
963827.003535852
1.0288589223536663e6
1.0485794453801685e6
1.06075727845652e6
1.0716975873750944e6
1.0820572946016586e6
1.0919078673583977e6
1.1012698829145236e6
1.1101529668675137e6
1.118557985558039e6
1.1264777935550348e6
1.1338954808704578e6
1.1407890493077524e6
1.1471169200044433e6
1.152861084688366e6
1.1578981497266842e6
1.1623985714117896e6
1.1655928922320905e6
1.1697097693396583e6
1.167160606289338e6
1.183489200070509e6
100000.00000002533
99999.99999993072
100000.00000018736
99999.99999949148
100000.00000137923
99999.99999625575
100000.00001016383
99999.99997240042
100000.00007496569
99999.9997963065
100000.00055366925
99999.9984944129
100000.00409602124
99999.98885084168
100000.030364714
99999.91724968406
100000.2256678476
99999.38412642623
100001.68173288068
99995.41358620884
100012.26141318906
99973.2654596548
99902.43860826435
104836.32428752183
187022.64195048416
431080.4485764134
745032.9868924447
951166.2162753352
1.0232486929099116e6
1.0444684279291566e6
1.0566534409732574e6
1.0673816213370212e6
1.0774945076420195e6
1.087083088674597e6
1.0961712510455882e6
1.1047712661867954e6
1.1128870343038652e6
1.1205147614343495e6
1.127641338498002e6
1.1342484582422355e6
1.1402994784994118e6
1.1457785231980302e6
1.150572563610772e6
1.1548418640710968e6
1.1578584586696695e6
1.161797100997418e6
1.1590676981276912e6
1.1761806869616066e6
100000.0000000188
99999.99999994884
100000.00000013778
99999.99999962874
100000.00000100084
99999.99999730234
100000.00000727031
99999.99998040509
100000.00005281129
99999.99985765934
100000.00038367294
99999.99896570388
100000.00278868077
99999.99247948117
100000.02028708695
99999.94525464973
100000.14779717378
99999.60078202463
100001.07870745972
99997.09028190986
100007.67142687996
99984.02358604863
99925.58972790083
103109.5157887027
172962.214144499
402235.7386647964
716454.5831456076
935583.9480647664
1.0164469440606987e6
1.0397266297246799e6
1.0519807274854633e6
1.0624650897065792e6
1.072284189529727e6
1.0815580133355134e6
1.0903139847224196e6
1.0985663686902365e6
1.1063214486511128e6
1.1135782371886987e6
1.120327036862119e6
1.1265531035555871e6
1.1322249055958183e6
1.1373295345163343e6
1.1417655572622705e6
1.145686378807317e6
1.148408741864634e6
1.1520666063524028e6
1.1490471844240176e6
1.167107442309629e6
100000.00000001282
99999.9999999659
100000.00000009096
99999.9999997581
100000.0000006431
99999.99999829185
100000.00000453123
99999.99998799094
100000.00003178636
99999.9999159758
100000.0002217933
99999.99941543679
100000.00153815038
99999.9959598691
100000.01059156033
99999.97229061404
100000.07233078637
99999.81165326147
100000.48895858877
99998.73903138042
100003.12454855468
99994.95023176979
99942.72602725304
101740.01789069251
158947.19917556734
370857.1231657517
683361.0540589254
916583.6343913132
1.0082123418104247e6
1.0343053498250018e6
1.0467365757379531e6
1.056951435605828e6
1.0664281991684074e6
1.0753307362217472e6
1.0836906587212707e6
1.091523221521776e6
1.098835896729736e6
1.105629307317738e6
1.1118960731661185e6
1.117624236209068e6
1.1227871064074363e6
1.1273756763692265e6
1.1313021129254727e6
1.134718671734575e6
1.136992696956459e6
1.1402358941463595e6
1.1367866453132005e6
1.1560155473467656e6
100000.00000000748
99999.9999999809
100000.0000000498
99999.99999987184
100000.00000032972
99999.99999915816
100000.00000213768
99999.99999461313
100000.00001345231
99999.99996678093
100000.00008087611
99999.99980669298
100000.0004506636
99999.9989859619
100000.00216080986
99999.99580901775
100000.0066348542
99999.9954285255
99999.97418887065
100000.18121720014
99999.13184032381
100004.72868934351
99952.64506131301
100768.3671030833
145566.14369509122
337578.6203561741
645670.8346264433
893599.0706378869
998224.682486609
1.0281350608040867e6
1.0409187243786032e6
1.0508484800697782e6
1.0599332834807818e6
1.0684041155126807e6
1.0762982144087336e6
1.083630346107319e6
1.0904071263791767e6
1.0966283874779637e6
1.1022862844330226e6
1.1073684803452217e6
1.1118494294277641e6
1.115720037150116e6
1.1189012512788954e6
1.1215415587218206e6
1.1230565030872016e6
1.1255574625888418e6
1.1213208021345881e6
1.141894700780406e6
100000.0000000031
99999.99999999313
100000.00000001655
99999.999999963
100000.00000007903
99999.99999984716
100000.00000024258
99999.99999982955
99999.99999908324
100000.00000639468
99999.99997156978
100000.00010859998
99999.99961589713
100000.00129676933
99999.99575586546
100000.01358649172
99999.95721734704
100000.13302286403
99999.5904620728
100001.25195127759
99996.1758621472
100012.01446681599
99957.0142698502
100175.31577811006
133384.35856615845
303192.03000508423
603450.3030509662
866011.2880997628
986062.4477520443
1.0211133870074879e6
1.034523196502424e6
1.0441696589155379e6
1.0528136977822983e6
1.0607895726346665e6
1.0681431439105694e6
1.074886797224825e6
1.0810233708721208e6
1.0865483444399578e6
1.0914492672744547e6
1.0957089578176758e6
1.0992987674827122e6
1.1022068564125474e6
1.1043628563540147e6
1.1059216885849682e6
1.1063616987163944e6
1.1078351781987504e6
1.1025259760479701e6
1.1248678856852434e6
99999.99999999967
100000.00000000179
99999.99999999262
100000.00000002836
99999.99999990192
100000.00000032867
99999.99999893375
100000.00000338674
99999.99998941309
100000.00003268578
99999.999900077
100000.00030304874
99999.99908688042
100000.00273652592
99999.99183569253
100000.02426640656
99999.92810107012
100000.21246904938
99999.37349582832
100001.84428838103
99994.57834528765
100015.8232388461
99959.51676063458
99890.43039325994
122888.54231242365
268643.36715867935
556975.1665918904
833183.4302402294
971179.8014415442
1.0130878726908123e6
1.027539897881023e6
1.0369337505974361e6
1.0450921644670817e6
1.0525087582373524e6
1.0592438548728093e6
1.0653051744827584e6
1.070687533718917e6
1.0753762137399174e6
1.079346081699601e6
1.0825636883965002e6
1.084980516850268e6
1.0865562718361972e6
1.0871924949696595e6
1.0869912595880488e6
1.0854122142462304e6
1.084606969473765e6
1.076624830789336e6
1.1001620428189451e6
99999.99999999786
100000.0000000073
99999.99999997811
100000.00000006698
99999.99999979924
100000.00000060031
99999.99999821764
100000.00000526862
99999.9999844856
100000.00004553101
99999.9998667581
100000.00038896046
99999.99886693571
100000.0032947415
99999.99043411136
100000.02773795214
99999.91965341962
100000.23253928171
99999.32741991107
100001.9442314229
99994.39014346113
100015.8938601286
99963.96937694385
99813.21475630815
114422.63771570947
235007.74950443624
506792.8430867251
794519.0977032387
952887.0688519235
1.0038325237825415e6
1.0199456808188948e6
1.0291640016850833e6
1.0368008073206192e6
1.0435955428591401e6
1.0496340393337903e6
1.054917311817846e6
1.0594271945998454e6
1.0631319241664652e6
1.0659847528084232e6
1.067924920741534e6
1.0688733113595448e6
1.0687531312535882e6
1.0674358764371506e6
1.06501375034843e6
1.0610098758321078e6
1.0577013241929933e6
1.0470975815974568e6
1.0734656843500203e6
99999.99999999665
100000.00000000985
99999.9999999718
100000.00000008235
99999.99999976197
100000.00000068767
99999.99999801909
100000.00000569437
99999.99998366061
100000.00004680638
99999.9998661157
100000.00038244651
99999.9989088334
100000.0031098959
99999.99114501443
100000.0251922397
99999.92838059334
100000.20348205276
99999.42218000743
100001.63978980514
99995.3581827958
100012.84006675857
99972.42437608704
99841.5458791325
108128.1433791966
203436.31349452992
453776.08548606915
749548.0640872106
930341.0581682388
993016.5660993336
1.0116932687960452e6
1.0208858597549201e6
1.027981358627435e6
1.0340971474230152e6
1.0393644837382822e6
1.0437765082006956e6
1.0472959654628661e6
1.049864239083989e6
1.0513971359190275e6
1.051780862117988e6
1.0508557021580052e6
1.0484246339637738e6
1.0441624367110052e6
1.0378168712847792e6
1.0283612643914145e6
1.0171897695442372e6
994877.2372494744
1.0128454644840647e6
99999.99999999654
100000.00000000994
99999.99999997189
100000.00000007974
99999.99999977431
100000.00000063727
99999.99999820303
100000.00000505809
99999.99998578505
100000.00003988309
99999.99988827838
100000.00031245241
99999.99912758384
100000.00243188252
99999.99323261944
100000.0187987734
99999.94787658541
100000.1442391684
99999.6016972468
100001.09706462418
99996.9940228567
100007.9953662617
99984.09952139652
99897.57979464484
103909.80824271329
175069.46399591918
399154.8111895595
698040.1212101632
902555.36805636
980164.9366469451
1.0026941106544925e6
1.0121226032227499e6
1.0186845734900113e6
1.024074977481608e6
1.0285054740019288e6
1.0319631578999674e6
1.0343866418698124e6
1.0356822891742759e6
1.0357163471044583e6
1.0343069204109674e6
1.031202890945216e6
1.0260831993989524e6
1.0184801160210489e6
1.0080112977791539e6
993682.4393048586
977210.533592532
949486.3146967978
972535.4567469064
99999.99999999683
100000.00000000841
99999.99999997625
100000.00000006598
99999.99999981734
100000.00000050508
99999.9999986069
100000.00000383232
99999.99998948583
100000.00002876083
99999.99992157749
100000.00021307425
99999.99942337954
100000.00155339875
99999.99583689978
100000.01108960215
99999.97067121713
100000.07689658436
99999.80053287982
100000.51026843002
99998.72264986606
100002.99420327369
99996.05632730458
99940.58751241076
101448.68760544572
150912.4788269448
344510.36861957033
640142.0202696648
868445.2514958961
964612.7258574301
992792.829284772
1.0028876625479095e6
1.0089680163637252e6
1.0136036373158012e6
1.0171458114069973e6
1.0195827255768918e6
1.020825210299212e6
1.0207354445917343e6
1.0191145461291107e6
1.0156819198771651e6
1.0100218042351069e6
1.0015213229784662e6
989149.8377458922
971328.4649940975
944369.4520350684
903379.6516260866
824876.6378042392
696621.2531182816
99999.99999999767
100000.00000000629
99999.9999999825
100000.00000004737
99999.9999998718
100000.00000034463
99999.99999907674
100000.0000024589
99999.99999348975
100000.00001711208
99999.99995540385
100000.00011501256
99999.99970722277
100000.00073292985
99999.99820559916
100000.00425870596
99999.99035083935
100000.0202498238
99999.9634600846
100000.04206719404
100000.06483455254
99999.21757094667
100004.98216334291
99962.6685736187
100273.55495637047
131677.13309247157
291715.03319677844
576522.6642990799
826924.6067873411
945460.8153244902
981730.9637927095
993172.3088379524
998892.0126964169
1.0027688666459981e6
1.0053914039073004e6
1.0067659974249158e6
1.0067769640442341e6
1.0052395022889246e6
1.0018902586376094e6
996346.4503677943
988035.4842177642
976093.4966230938
959086.8009180373
934793.6725317483
898675.5342684189
844807.6151577935
753760.3364593923
617453.1019895731
99999.99999999824
100000.000000004
99999.99999998856
100000.00000002919
99999.99999992325
100000.00000019693
99999.9999994972
100000.00000126398
99999.9999968769
100000.00000753338
99999.99998242385
100000.00003898732
99999.99992055503
100000.00013603752
99999.99987041997
99999.99963138012
100000.0031624734
99999.98493469277
100000.06030929767
99999.77811443657
100000.77745663801
99997.34969358234
100008.95728086446
99972.88197228134
99877.84101159652
117615.75284132437
242801.6028503083
508497.3926857219
777069.3471272332
921546.4423777212
969097.7304105407
982926.4943841454
988512.7014633798
991663.1559586143
993360.0168813474
993661.2056816596
992430.8834684526
989447.7297192242
984391.8817967438
976804.1070456754
966007.0781972009
951001.3903143125
930206.1713205281
901300.7965827839
860051.6322823802
801532.7201288115
712701.5838752482
592079.7264824614
99999.99999999921
100000.00000000211
99999.99999999383
100000.00000001484
99999.9999999638
100000.00000008529
99999.99999980522
100000.00000041671
99999.99999919484
100000.00000122278
99999.9999994968
99999.9999931287
100000.00004267521
99999.99981423939
100000.0007072799
99999.99749180849
100000.00850915149
99999.97199687274
100000.09012759008
99999.71483417327
100000.89022034004
99997.25251979221
100008.26433963154
99981.24710571057
99841.0076032521
108410.96632300994
199756.2653144441
438089.6879158722
718349.1532989297
891450.0721396505
954266.4165798338
972029.6187058003
977871.0814669535
980379.1451525387
981173.7428210183
980421.250958855
977983.4291992022
973614.0039830605
966957.3701828116
957511.8480566923
944558.4961907705
927074.6633966096
903530.169338786
871821.321810859
828480.5370957665
769959.1525077722
688278.4868715955
585023.6035330874
99999.99999999956
100000.00000000089
99999.99999999756
100000.00000000512
99999.99999998976
100000.00000001608
99999.99999998775
99999.99999994061
100000.00000042105
99999.9999981188
100000.00000718237
99999.99997468088
100000.00008495632
99999.99972441667
100000.00087176859
99999.99729624516
100000.00824955679
99999.9751832484
100000.07370581737
99999.78371873572
100000.62708070295
99998.20803088746
100004.90527022227
99991.04677797022
99901.21757385226
103203.4857667779
164239.13095332668
367986.6853321631
650910.76312618
853570.1927138545
936319.6335017001
960247.2310827418
966976.5335562002
969001.3249340091
968951.142768352
967193.8041020529
963618.5379079223
957968.9458874065
949875.9095704247
938829.5538863634
924123.2064408595
904792.1495940048
879472.245003243
846407.945199289
802970.0043859398
746794.340371411
673312.1974540656
584901.088862164
99999.99999999984
100000.0000000002
99999.99999999953
99999.99999999965
100000.00000000294
99999.99999998316
100000.00000006623
99999.99999975969
100000.00000081176
99999.99999736784
100000.00000827208
99999.99997461634
100000.00007633845
99999.99977444418
100000.00065553513
99999.99812545271
100000.00527095236
99999.98544967549
100000.03931546425
99999.89653666054
100000.26284093218
99999.36830355211
100001.30730513678
99999.8851907139
99950.65805547457
100798.11065709082
137252.28271404427
301353.04465813667
575869.3180034913
806307.1394737626
913978.3558155531
947170.221945428
955782.594220822
957595.6214468846
956798.9719024249
954113.3527909843
949497.0968314335
942704.2460127614
933371.9005978692
921009.7908649358