# vtk DataFile Version 2.0
JuliaCFD
ASCII
DATASET UNSTRUCTURED_GRID

POINTS 32898 float
0.0 0.0 -0.05
0.0125 0.0 -0.05
0.025 0.0 -0.05
0.0375 0.0 -0.05
0.05 0.0 -0.05
0.0625 0.0 -0.05
0.075 0.0 -0.05
0.0875 0.0 -0.05
0.1 0.0 -0.05
0.1125 0.0 -0.05
0.125 0.0 -0.05
0.1375 0.0 -0.05
0.15 0.0 -0.05
0.1625 0.0 -0.05
0.175 0.0 -0.05
0.1875 0.0 -0.05
0.2 0.0 -0.05
0.2125 0.0 -0.05
0.225 0.0 -0.05
0.2375 0.0 -0.05
0.25 0.0 -0.05
0.2625 0.0 -0.05
0.275 0.0 -0.05
0.2875 0.0 -0.05
0.3 0.0 -0.05
0.3125 0.0 -0.05
0.325 0.0 -0.05
0.3375 0.0 -0.05
0.35 0.0 -0.05
0.3625 0.0 -0.05
0.375 0.0 -0.05
0.3875 0.0 -0.05
0.4 0.0 -0.05
0.4125 0.0 -0.05
0.425 0.0 -0.05
0.4375 0.0 -0.05
0.45 0.0 -0.05
0.4625 0.0 -0.05
0.475 0.0 -0.05
0.4875 0.0 -0.05
0.5 0.0 -0.05
0.5125 0.0 -0.05
0.525 0.0 -0.05
0.5375 0.0 -0.05
0.55 0.0 -0.05
0.5625 0.0 -0.05
0.575 0.0 -0.05
0.5875 0.0 -0.05
0.6 0.0 -0.05
0.0 0.0125 -0.05
0.0125 0.0125 -0.05
0.025 0.0125 -0.05
0.0375 0.0125 -0.05
0.05 0.0125 -0.05
0.0625 0.0125 -0.05
0.075 0.0125 -0.05
0.0875 0.0125 -0.05
0.1 0.0125 -0.05
0.1125 0.0125 -0.05
0.125 0.0125 -0.05
0.1375 0.0125 -0.05
0.15 0.0125 -0.05
0.1625 0.0125 -0.05
0.175 0.0125 -0.05
0.1875 0.0125 -0.05
0.2 0.0125 -0.05
0.2125 0.0125 -0.05
0.225 0.0125 -0.05
0.2375 0.0125 -0.05
0.25 0.0125 -0.05
0.2625 0.0125 -0.05
0.275 0.0125 -0.05
0.2875 0.0125 -0.05
0.3 0.0125 -0.05
0.3125 0.0125 -0.05
0.325 0.0125 -0.05
0.3375 0.0125 -0.05
0.35 0.0125 -0.05
0.3625 0.0125 -0.05
0.375 0.0125 -0.05
0.3875 0.0125 -0.05
0.4 0.0125 -0.05
0.4125 0.0125 -0.05
0.425 0.0125 -0.05
0.4375 0.0125 -0.05
0.45 0.0125 -0.05
0.4625 0.0125 -0.05
0.475 0.0125 -0.05
0.4875 0.0125 -0.05
0.5 0.0125 -0.05
0.5125 0.0125 -0.05
0.525 0.0125 -0.05
0.5375 0.0125 -0.05
0.55 0.0125 -0.05
0.5625 0.0125 -0.05
0.575 0.0125 -0.05
0.5875 0.0125 -0.05
0.6 0.0125 -0.05
0.0 0.025 -0.05
0.0125 0.025 -0.05
0.025 0.025 -0.05
0.0375 0.025 -0.05
0.05 0.025 -0.05
0.0625 0.025 -0.05
0.075 0.025 -0.05
0.0875 0.025 -0.05
0.1 0.025 -0.05
0.1125 0.025 -0.05
0.125 0.025 -0.05
0.1375 0.025 -0.05
0.15 0.025 -0.05
0.1625 0.025 -0.05
0.175 0.025 -0.05
0.1875 0.025 -0.05
0.2 0.025 -0.05
0.2125 0.025 -0.05
0.225 0.025 -0.05
0.2375 0.025 -0.05
0.25 0.025 -0.05
0.2625 0.025 -0.05
0.275 0.025 -0.05
0.2875 0.025 -0.05
0.3 0.025 -0.05
0.3125 0.025 -0.05
0.325 0.025 -0.05
0.3375 0.025 -0.05
0.35 0.025 -0.05
0.3625 0.025 -0.05
0.375 0.025 -0.05
0.3875 0.025 -0.05
0.4 0.025 -0.05
0.4125 0.025 -0.05
0.425 0.025 -0.05
0.4375 0.025 -0.05
0.45 0.025 -0.05
0.4625 0.025 -0.05
0.475 0.025 -0.05
0.4875 0.025 -0.05
0.5 0.025 -0.05
0.5125 0.025 -0.05
0.525 0.025 -0.05
0.5375 0.025 -0.05
0.55 0.025 -0.05
0.5625 0.025 -0.05
0.575 0.025 -0.05
0.5875 0.025 -0.05
0.6 0.025 -0.05
0.0 0.0375 -0.05
0.0125 0.0375 -0.05
0.025 0.0375 -0.05
0.0375 0.0375 -0.05
0.05 0.0375 -0.05
0.0625 0.0375 -0.05
0.075 0.0375 -0.05
0.0875 0.0375 -0.05
0.1 0.0375 -0.05
0.1125 0.0375 -0.05
0.125 0.0375 -0.05
0.1375 0.0375 -0.05
0.15 0.0375 -0.05
0.1625 0.0375 -0.05
0.175 0.0375 -0.05
0.1875 0.0375 -0.05
0.2 0.0375 -0.05
0.2125 0.0375 -0.05
0.225 0.0375 -0.05
0.2375 0.0375 -0.05
0.25 0.0375 -0.05
0.2625 0.0375 -0.05
0.275 0.0375 -0.05
0.2875 0.0375 -0.05
0.3 0.0375 -0.05
0.3125 0.0375 -0.05
0.325 0.0375 -0.05
0.3375 0.0375 -0.05
0.35 0.0375 -0.05
0.3625 0.0375 -0.05
0.375 0.0375 -0.05
0.3875 0.0375 -0.05
0.4 0.0375 -0.05
0.4125 0.0375 -0.05
0.425 0.0375 -0.05
0.4375 0.0375 -0.05
0.45 0.0375 -0.05
0.4625 0.0375 -0.05
0.475 0.0375 -0.05
0.4875 0.0375 -0.05
0.5 0.0375 -0.05
0.5125 0.0375 -0.05
0.525 0.0375 -0.05
0.5375 0.0375 -0.05
0.55 0.0375 -0.05
0.5625 0.0375 -0.05
0.575 0.0375 -0.05
0.5875 0.0375 -0.05
0.6 0.0375 -0.05
0.0 0.05 -0.05
0.0125 0.05 -0.05
0.025 0.05 -0.05
0.0375 0.05 -0.05
0.05 0.05 -0.05
0.0625 0.05 -0.05
0.075 0.05 -0.05
0.0875 0.05 -0.05
0.1 0.05 -0.05
0.1125 0.05 -0.05
0.125 0.05 -0.05
0.1375 0.05 -0.05
0.15 0.05 -0.05
0.1625 0.05 -0.05
0.175 0.05 -0.05
0.1875 0.05 -0.05
0.2 0.05 -0.05
0.2125 0.05 -0.05
0.225 0.05 -0.05
0.2375 0.05 -0.05
0.25 0.05 -0.05
0.2625 0.05 -0.05
0.275 0.05 -0.05
0.2875 0.05 -0.05
0.3 0.05 -0.05
0.3125 0.05 -0.05
0.325 0.05 -0.05
0.3375 0.05 -0.05
0.35 0.05 -0.05
0.3625 0.05 -0.05
0.375 0.05 -0.05
0.3875 0.05 -0.05
0.4 0.05 -0.05
0.4125 0.05 -0.05
0.425 0.05 -0.05
0.4375 0.05 -0.05
0.45 0.05 -0.05
0.4625 0.05 -0.05
0.475 0.05 -0.05
0.4875 0.05 -0.05
0.5 0.05 -0.05
0.5125 0.05 -0.05
0.525 0.05 -0.05
0.5375 0.05 -0.05
0.55 0.05 -0.05
0.5625 0.05 -0.05
0.575 0.05 -0.05
0.5875 0.05 -0.05
0.6 0.05 -0.05
0.0 0.0625 -0.05
0.0125 0.0625 -0.05
0.025 0.0625 -0.05
0.0375 0.0625 -0.05
0.05 0.0625 -0.05
0.0625 0.0625 -0.05
0.075 0.0625 -0.05
0.0875 0.0625 -0.05
0.1 0.0625 -0.05
0.1125 0.0625 -0.05
0.125 0.0625 -0.05
0.1375 0.0625 -0.05
0.15 0.0625 -0.05
0.1625 0.0625 -0.05
0.175 0.0625 -0.05
0.1875 0.0625 -0.05
0.2 0.0625 -0.05
0.2125 0.0625 -0.05
0.225 0.0625 -0.05
0.2375 0.0625 -0.05
0.25 0.0625 -0.05
0.2625 0.0625 -0.05
0.275 0.0625 -0.05
0.2875 0.0625 -0.05
0.3 0.0625 -0.05
0.3125 0.0625 -0.05
0.325 0.0625 -0.05
0.3375 0.0625 -0.05
0.35 0.0625 -0.05
0.3625 0.0625 -0.05
0.375 0.0625 -0.05
0.3875 0.0625 -0.05
0.4 0.0625 -0.05
0.4125 0.0625 -0.05
0.425 0.0625 -0.05
0.4375 0.0625 -0.05
0.45 0.0625 -0.05
0.4625 0.0625 -0.05
0.475 0.0625 -0.05
0.4875 0.0625 -0.05
0.5 0.0625 -0.05
0.5125 0.0625 -0.05
0.525 0.0625 -0.05
0.5375 0.0625 -0.05
0.55 0.0625 -0.05
0.5625 0.0625 -0.05
0.575 0.0625 -0.05
0.5875 0.0625 -0.05
0.6 0.0625 -0.05
0.0 0.075 -0.05
0.0125 0.075 -0.05
0.025 0.075 -0.05
0.0375 0.075 -0.05
0.05 0.075 -0.05
0.0625 0.075 -0.05
0.075 0.075 -0.05
0.0875 0.075 -0.05
0.1 0.075 -0.05
0.1125 0.075 -0.05
0.125 0.075 -0.05
0.1375 0.075 -0.05
0.15 0.075 -0.05
0.1625 0.075 -0.05
0.175 0.075 -0.05
0.1875 0.075 -0.05
0.2 0.075 -0.05
0.2125 0.075 -0.05
0.225 0.075 -0.05
0.2375 0.075 -0.05
0.25 0.075 -0.05
0.2625 0.075 -0.05
0.275 0.075 -0.05
0.2875 0.075 -0.05
0.3 0.075 -0.05
0.3125 0.075 -0.05
0.325 0.075 -0.05
0.3375 0.075 -0.05
0.35 0.075 -0.05
0.3625 0.075 -0.05
0.375 0.075 -0.05
0.3875 0.075 -0.05
0.4 0.075 -0.05
0.4125 0.075 -0.05
0.425 0.075 -0.05
0.4375 0.075 -0.05
0.45 0.075 -0.05
0.4625 0.075 -0.05
0.475 0.075 -0.05
0.4875 0.075 -0.05
0.5 0.075 -0.05
0.5125 0.075 -0.05
0.525 0.075 -0.05
0.5375 0.075 -0.05
0.55 0.075 -0.05
0.5625 0.075 -0.05
0.575 0.075 -0.05
0.5875 0.075 -0.05
0.6 0.075 -0.05
0.0 0.0875 -0.05
0.0125 0.0875 -0.05
0.025 0.0875 -0.05
0.0375 0.0875 -0.05
0.05 0.0875 -0.05
0.0625 0.0875 -0.05
0.075 0.0875 -0.05
0.0875 0.0875 -0.05
0.1 0.0875 -0.05
0.1125 0.0875 -0.05
0.125 0.0875 -0.05
0.1375 0.0875 -0.05
0.15 0.0875 -0.05
0.1625 0.0875 -0.05
0.175 0.0875 -0.05
0.1875 0.0875 -0.05
0.2 0.0875 -0.05
0.2125 0.0875 -0.05
0.225 0.0875 -0.05
0.2375 0.0875 -0.05
0.25 0.0875 -0.05
0.2625 0.0875 -0.05
0.275 0.0875 -0.05
0.2875 0.0875 -0.05
0.3 0.0875 -0.05
0.3125 0.0875 -0.05
0.325 0.0875 -0.05
0.3375 0.0875 -0.05
0.35 0.0875 -0.05
0.3625 0.0875 -0.05
0.375 0.0875 -0.05
0.3875 0.0875 -0.05
0.4 0.0875 -0.05
0.4125 0.0875 -0.05
0.425 0.0875 -0.05
0.4375 0.0875 -0.05
0.45 0.0875 -0.05
0.4625 0.0875 -0.05
0.475 0.0875 -0.05
0.4875 0.0875 -0.05
0.5 0.0875 -0.05
0.5125 0.0875 -0.05
0.525 0.0875 -0.05
0.5375 0.0875 -0.05
0.55 0.0875 -0.05
0.5625 0.0875 -0.05
0.575 0.0875 -0.05
0.5875 0.0875 -0.05
0.6 0.0875 -0.05
0.0 0.1 -0.05
0.0125 0.1 -0.05
0.025 0.1 -0.05
0.0375 0.1 -0.05
0.05 0.1 -0.05
0.0625 0.1 -0.05
0.075 0.1 -0.05
0.0875 0.1 -0.05
0.1 0.1 -0.05
0.1125 0.1 -0.05
0.125 0.1 -0.05
0.1375 0.1 -0.05
0.15 0.1 -0.05
0.1625 0.1 -0.05
0.175 0.1 -0.05
0.1875 0.1 -0.05
0.2 0.1 -0.05
0.2125 0.1 -0.05
0.225 0.1 -0.05
0.2375 0.1 -0.05
0.25 0.1 -0.05
0.2625 0.1 -0.05
0.275 0.1 -0.05
0.2875 0.1 -0.05
0.3 0.1 -0.05
0.3125 0.1 -0.05
0.325 0.1 -0.05
0.3375 0.1 -0.05
0.35 0.1 -0.05
0.3625 0.1 -0.05
0.375 0.1 -0.05
0.3875 0.1 -0.05
0.4 0.1 -0.05
0.4125 0.1 -0.05
0.425 0.1 -0.05
0.4375 0.1 -0.05
0.45 0.1 -0.05
0.4625 0.1 -0.05
0.475 0.1 -0.05
0.4875 0.1 -0.05
0.5 0.1 -0.05
0.5125 0.1 -0.05
0.525 0.1 -0.05
0.5375 0.1 -0.05
0.55 0.1 -0.05
0.5625 0.1 -0.05
0.575 0.1 -0.05
0.5875 0.1 -0.05
0.6 0.1 -0.05
0.0 0.1125 -0.05
0.0125 0.1125 -0.05
0.025 0.1125 -0.05
0.0375 0.1125 -0.05
0.05 0.1125 -0.05
0.0625 0.1125 -0.05
0.075 0.1125 -0.05
0.0875 0.1125 -0.05
0.1 0.1125 -0.05
0.1125 0.1125 -0.05
0.125 0.1125 -0.05
0.1375 0.1125 -0.05
0.15 0.1125 -0.05
0.1625 0.1125 -0.05
0.175 0.1125 -0.05
0.1875 0.1125 -0.05
0.2 0.1125 -0.05
0.2125 0.1125 -0.05
0.225 0.1125 -0.05
0.2375 0.1125 -0.05
0.25 0.1125 -0.05
0.2625 0.1125 -0.05
0.275 0.1125 -0.05
0.2875 0.1125 -0.05
0.3 0.1125 -0.05
0.3125 0.1125 -0.05
0.325 0.1125 -0.05
0.3375 0.1125 -0.05
0.35 0.1125 -0.05
0.3625 0.1125 -0.05
0.375 0.1125 -0.05
0.3875 0.1125 -0.05
0.4 0.1125 -0.05
0.4125 0.1125 -0.05
0.425 0.1125 -0.05
0.4375 0.1125 -0.05
0.45 0.1125 -0.05
0.4625 0.1125 -0.05
0.475 0.1125 -0.05
0.4875 0.1125 -0.05
0.5 0.1125 -0.05
0.5125 0.1125 -0.05
0.525 0.1125 -0.05
0.5375 0.1125 -0.05
0.55 0.1125 -0.05
0.5625 0.1125 -0.05
0.575 0.1125 -0.05
0.5875 0.1125 -0.05
0.6 0.1125 -0.05
0.0 0.125 -0.05
0.0125 0.125 -0.05
0.025 0.125 -0.05
0.0375 0.125 -0.05
0.05 0.125 -0.05
0.0625 0.125 -0.05
0.075 0.125 -0.05
0.0875 0.125 -0.05
0.1 0.125 -0.05
0.1125 0.125 -0.05
0.125 0.125 -0.05
0.1375 0.125 -0.05
0.15 0.125 -0.05
0.1625 0.125 -0.05
0.175 0.125 -0.05
0.1875 0.125 -0.05
0.2 0.125 -0.05
0.2125 0.125 -0.05
0.225 0.125 -0.05
0.2375 0.125 -0.05
0.25 0.125 -0.05
0.2625 0.125 -0.05
0.275 0.125 -0.05
0.2875 0.125 -0.05
0.3 0.125 -0.05
0.3125 0.125 -0.05
0.325 0.125 -0.05
0.3375 0.125 -0.05
0.35 0.125 -0.05
0.3625 0.125 -0.05
0.375 0.125 -0.05
0.3875 0.125 -0.05
0.4 0.125 -0.05
0.4125 0.125 -0.05
0.425 0.125 -0.05
0.4375 0.125 -0.05
0.45 0.125 -0.05
0.4625 0.125 -0.05
0.475 0.125 -0.05
0.4875 0.125 -0.05
0.5 0.125 -0.05
0.5125 0.125 -0.05
0.525 0.125 -0.05
0.5375 0.125 -0.05
0.55 0.125 -0.05
0.5625 0.125 -0.05
0.575 0.125 -0.05
0.5875 0.125 -0.05
0.6 0.125 -0.05
0.0 0.1375 -0.05
0.0125 0.1375 -0.05
0.025 0.1375 -0.05
0.0375 0.1375 -0.05
0.05 0.1375 -0.05
0.0625 0.1375 -0.05
0.075 0.1375 -0.05
0.0875 0.1375 -0.05
[...]
CELL_DATA 16128
SCALARS P float 1
LOOKUP_TABLE default
99999.99999997785
100000.00000006016
99999.99999983692
100000.00000044091
99999.99999880853
100000.00000321635
99999.99999132352
100000.00002338605
99999.99993701602
100000.0001694859
99999.99954432552
100000.00122397397
99999.99671551421
100000.00880478359
99999.97642225212
100000.06306523978
99999.83152100007
100000.44949009545
99998.80262573258
100003.1836778415
99991.56297514807
100022.15514980085
99944.6209720178
100116.72642437086
135023.29305901617
313917.2630038724
628316.0037562345
901475.2851973249
1.0213523958981485e6
1.053348146189205e6
1.0671217502249521e6
1.0788231404517563e6
1.0900069104862094e6
1.1007239206599817e6
1.1109536242316896e6
1.1206813554950086e6
1.1298929028726753e6
1.138571054430797e6
1.146691081919781e6
1.1542270872194658e6
1.1611311484709615e6
1.167395211132256e6
1.1728718208783194e6
1.177807800149784e6
1.181273772399079e6
1.1858244757393096e6
1.1836790589304767e6
1.1977137903108208e6
99999.9999999779
100000.00000005962
99999.99999983821
100000.00000043787
99999.99999881633
100000.000003198
99999.99999136671
100000.0000232903
99999.99993721781
100000.00016910206
99999.9995449175
100000.00122358931
99999.99671331153
100000.00881915804
99999.97636226067
100000.06327835344
99999.8308268457
100000.45163836783
99998.79611850649
100003.20366816399
99991.49862005902
100022.35282133108
99944.8108413526
100091.28350229301
134296.1694222035
312359.8619518785
628297.6790029709
905382.0849935053
1.0284269645222967e6
1.0618307173691236e6
1.0762423039397302e6
1.0883098413336352e6
1.099746925606367e6
1.110675013330512e6
1.1211067992442006e6
1.1310416483771247e6
1.1404694711718203e6
1.1493720083299868e6
1.1577205772656328e6
1.1654833159101533e6
1.1726048680382385e6
1.1790679889709936e6
1.1847156209241196e6
1.189782519722314e6
1.1933300553966216e6
1.1979124083914221e6
1.1956863542016232e6
1.2099251497173824e6
99999.9999999784
100000.00000005846
99999.99999984152
100000.00000042978
99999.99999883624
100000.00000314908
99999.99999148205
100000.00002302615
99999.99993779178
100000.00016795515
99999.99954684229
100000.00122179011
99999.99670831398
100000.00886126194
99999.97616534549
100000.06405297543
99999.82802314374
100000.46130549988
99998.76382447092
100003.30904183237
99991.16321150224
100023.33660486361
99943.80364524123
100038.85575360719
132498.2211930228
306752.7691187975
620587.6571741789
899147.584672954
1.0243485145579207e6
1.0583808025366797e6
1.0727379668178768e6
1.0846517647165223e6
1.0959215242077643e6
1.106672584998521e6
1.1169162061296515e6
1.1266517997730456e6
1.135870658524148e6
1.1445567609057613e6
1.1526843963340714e6
1.1602250789318534e6
1.1671281651910695e6
1.1733801481153395e6
1.1788337829043353e6
1.1837207499179374e6
1.18713526088847e6
1.191581912123082e6
1.1892900908798184e6
1.2037233691844766e6
99999.99999997926
100000.00000005627
99999.99999984686
100000.00000041614
99999.99999887068
100000.0000030635
99999.9999916922
100000.00002252182
99999.99993896914
100000.00016531811
99999.99955237805
100000.00121147546
99999.99672264623
100000.0088619538
99999.97604888608
100000.0647000628
99999.82531338262
100000.47139399707
99998.72866108145
100003.4262831179
99990.78720083566
100024.42993135285
99943.00374906964
99968.82268004294
129751.30722738756
297997.8385074401
608951.9164904926
891027.2721237664
1.0208244745701043e6
1.0565344429315648e6
1.071186932313071e6
1.0831471167148068e6
1.0944157722224945e6
1.1051479536174233e6
1.1153651370692349e6
1.125073335229809e6
1.1342686838410655e6
1.1429388312419958e6
1.15106100276482e6
1.1586086035878055e6
1.165532836355869e6
1.1718185953862797e6
1.1773218911019526e6
1.1822587642186426e6
1.1857464815442113e6
1.1902233351692923e6
1.1879533748102372e6
1.2027627754736429e6
99999.99999998034
100000.00000005339
99999.9999998545
100000.0000003958
99999.99999892313
100000.0000029292
99999.99999203235
100000.00002166725
99999.99994108338
100000.00016017715
99999.99956458363
100000.00118344143
99999.99678391413
100000.0087386909
99999.97625882586
100000.06449010472
99999.82484769748
100000.47562527104
99998.70871473735
100003.50431566824
99990.51030680901
100025.2841593356
99942.63382267836
99898.52844121332
126246.24328400425
286311.03318845876
593082.1740426194
879723.3382541146
1.0157553684295533e6
1.0536938332616151e6
1.0686025149012643e6
1.0804838836679705e6
1.0916299978175263e6
1.102226880265256e6
1.1123011143709703e6
1.121861963008273e6
1.1309085563412644e6
1.1394313416939734e6
1.1474103278366898e6
1.1548211838839995e6
1.161618091539406e6
1.1677857610264008e6
1.1731870744825795e6
1.1780243368040954e6
1.1814494407703914e6
1.1858336555317952e6
1.1834954402523988e6
1.1987171704516225e6
99999.9999999818
100000.00000004952
99999.99999986542
100000.00000036776
99999.99999899692
100000.00000273605
99999.9999925365
100000.00002035974
99999.99994445375
100000.00015155648
99999.99958643048
100000.00112870081
99999.99691913207
100000.00841076547
99999.97703477662
100000.06271646229
99999.8286951045
100000.46798745281
99998.72131834044
100003.49354601235
99990.47305417537
100025.521480435
99943.14418448275
99844.21391578637
122225.93589657135
272014.3647815479
573012.6423001679
865082.522738286
1.0092335513029321e6
1.0502515154604001e6
1.065550921678035e6
1.0773447025039888e6
1.08834496954408e6
1.0987829360109551e6
1.1086913380425156e6
1.1180831693850078e6
1.1269612368524e6
1.135319564484444e6
1.1431417435305712e6
1.150406404700653e6
1.157071313645536e6
1.1631210953048246e6
1.1684257197325495e6
1.1731722497433007e6
1.1765477832731593e6
1.1808550759945877e6
1.1784482102005626e6
1.194203315670451e6
99999.99999998377
100000.0000000444
99999.99999987878
100000.0000003316
99999.99999909321
100000.0000024784
99999.9999932224
100000.00001853687
99999.99994928355
100000.00013880106
99999.99961999213
100000.00104077139
99999.99714836545
100000.00781660713
99999.9785642311
100000.05881192881
99999.83856201825
100000.44336963419
99998.78173243275
100003.34849572273
99990.81061087814
100024.75361865122
99945.26749367813
99816.60955993623
117964.38659904113
255515.13131440582
548802.5863296627
846764.8277297427
1.0009503745062341e6
1.0460499647018783e6
1.0619079832933208e6
1.0735902244953164e6
1.0843963524024927e6
1.0946234690586887e6
1.104311438783731e6
1.1134765419672425e6
1.1221250210083316e6
1.130254474337217e6
1.1378522918572696e6
1.1449004953687703e6
1.1513611532412698e6
1.1572198261614633e6
1.1623552611905632e6
1.1669413684628962e6
1.1702042280192585e6
1.1743839362693285e6
1.1718555302364838e6
1.188253732967643e6
99999.999999986
100000.00000003853
99999.99999989464
100000.00000028816
99999.99999921097
100000.00000215955
99999.99999408529
100000.00001620447
99999.99995558153
100000.00012181456
99999.99966574728
100000.00091770325
99999.99747884258
100000.0069308175
99999.98093340368
100000.05249073695
99999.85537964721
100000.39877501076
99998.89951278309
100003.038918355
99991.61813727811
100022.68763792171
99949.79838680387
99818.29857490874
113746.24882690836
237311.0581304706
520586.31194137986
824416.5467487911
990583.4388614381
1.0409967343236035e6
1.0576689911859266e6
1.069236223143609e6
1.0798069678152492e6
1.0897756300231165e6
1.0991917422870977e6
1.1080746626671732e6
1.1164338657294912e6
1.1242705260969652e6
1.1315760670096152e6
1.138336429968868e6
1.1445188519373047e6
1.150111237187453e6
1.1550029376802458e6
1.1593577258660072e6
1.1624433772638575e6
1.1664456341868418e6
1.1637375092467282e6
1.1809237231060485e6
99999.99999998836
100000.00000003207
99999.99999991264
100000.0000002392
99999.99999934544
100000.00000179163
99999.99999509135
100000.00001345138
99999.99996311484
100000.00010120378
99999.99972213325
100000.00076346286
99999.99790068861
100000.00577732571
99999.98408659268
100000.04387437899
99999.8789133441
100000.33453674144
99999.0747222058
100002.5615774356
99992.91436971247
100019.23630704408
99957.2737375664
99843.50158342354
109841.64910351128
217990.52108760626
488598.3148060646
797665.6537638326
977725.5920821972
1.0349544551311125e6
1.0528065756355778e6
1.0642736959497004e6
1.0745669542495294e6
1.084224698133986e6
1.093310558246131e6
1.1018466182479234e6
1.1098449163348605e6
1.1173096338155202e6
1.1242358255326268e6
1.1306132299991352e6
1.1364144396914856e6
1.1416305887746199e6
1.1461628873896229e6
1.150168443384116e6
1.1529599129384425e6
1.1566822412269926e6
1.1536840569693493e6
1.1718216939258906e6
99999.99999999086
100000.00000002516
99999.99999993126
100000.00000018718
99999.99999948853
100000.00000139716
99999.99999617992
100000.00001044692
99999.99997141093
100000.0000782825
99999.99978549882
100000.00058818393
99999.99838583401
100000.00443368338
99999.98781021328
100000.03354881801
99999.90756313951
100000.25499831929
99999.29565306005
100001.94773980216
99994.61723542953
100014.59821261824
99967.63278938434
99880.62548955511
106477.29253793794
198226.08114082026
453208.2994543072
766152.8102449897
961879.4925566331
1.0277401497255289e6
1.0472903159113035e6
1.058701672081056e6
1.0686771479159242e6
1.0779680923672298e6
1.0866597504236887e6
1.094776551620734e6
1.1023319291003263e6
1.109331859936176e6
1.1157739220789857e6
1.1216508744032853e6
1.1269403952417504e6
1.1316378465838113e6
1.1356582903167922e6
1.139158167394569e6
1.1415005903757713e6
1.1448087356320708e6
1.1413808217265664e6
1.1606929061791932e6
99999.99999999309
100000.00000001838
99999.99999994982
100000.0000001358
99999.99999963063
100000.0000010036
99999.99999727133
100000.00000741876
99999.99997982066
100000.00005490286
99999.9998505593
100000.00040694403
99999.99889126337
100000.00302258936
99999.99175437646
100000.02251130059
99999.93848869657
100000.1682419292
99999.53933536926
100001.26256388647
99996.54281201522
100009.2737174302
99979.99387651526
99916.88068738683
103807.61713169918
178755.9284314051
414956.31972890504
729574.2828162031
942448.337594836
1.0191024162170693e6
1.0410766713530719e6
1.0525216164074978e6
1.0621433890135859e6
1.071008358072365e6
1.0792359037878343e6
1.086852486632906e6
1.0938709788562178e6
1.1002967497508987e6
1.1061271030118985e6
1.1113546473803998e6
1.1159584158280464e6
1.1199340898941623e6
1.123205569432663e6
1.1259262355521694e6
1.1275070874263844e6
1.1300732996883853e6
1.1258574897713915e6
1.1465216918686864e6
99999.99999999543
100000.00000001203
99999.99999996691
100000.00000008856
99999.99999976116
100000.00000064074
99999.99999827918
100000.00000461488
99999.99998762856
100000.00003313432
99999.99991132521
100000.00023709612
99999.99936665922
100000.00169006432
99999.99549504118
100000.01199401522
99999.9681075108
100000.08468813275
99999.77544823573
100000.59426695108
99998.434878131
100003.99068864506
99992.69393931345
99943.17523005589
101892.47087768264
160348.66688713158
374582.7253396707
687741.007372923
918737.4402749186
1.008696089345672e6
1.0340995355453546e6
1.0457367321930528e6
1.0549786162501867e6
1.0633567297979624e6
1.0710453560986342e6
1.0780731921711143e6
1.084449822506544e6
1.0901764588549607e6
1.0952459751114591e6
1.0996463585505781e6
1.1033536805886636e6
1.1063613926164422e6
1.1086017655048142e6
1.1102379267700652e6
1.110738376671646e6
1.112274405433295e6
1.1069901138488168e6
1.1294302372352814e6
99999.99999999718
100000.00000000688
99999.99999998118
100000.00000004859
99999.99999987139
100000.00000033483
99999.99999912846
100000.00000225502
99999.99999419333
100000.00001484957
99999.99996231974
100000.00009468164
99999.99976497368
100000.00057428237
99999.99862583661
100000.00319374184
99999.99289023803
100000.01475884828
99999.97317676948
100000.03405419787
100000.023441788
99999.53867361472
100003.66228309395
99957.0745147862
100689.37824161754
143747.2967489705
333045.5002139464
640652.926518587
889972.0900051628
996052.3218570853
1.0262555723650749e6
1.038348961426889e6
1.0472032566763322e6
1.055034662004194e6
1.0621065099926614e6
1.0684511750603763e6
1.074071098781801e6
1.0789575196090962e6
1.0830907834208808e6
1.0864428116290409e6
1.0889697746802373e6
1.0906379464415796e6
1.091349781042919e6
1.0912141044953351e6
1.0896911375706021e6
1.0889387562592314e6
1.080977946310218e6
1.1046241521562405e6
99999.99999999854
100000.0000000028
99999.99999999233
100000.00000001826
99999.99999995572
100000.00000010293
99999.9999997687
100000.00000048711
99999.99999907984
100000.00000133053
99999.99999976093
99999.99999087429
100000.00005312788
99999.99977336783
100000.00085510573
99999.99697919682
100000.01024378187
99999.96621144109
100000.10926232017
99999.65181343521
100001.09810534045
99996.54942946896
100011.05263626171
99962.37668188356
100067.23592023364
129590.92047881175
291515.9046355538
588584.7657690586
855340.3323844174
980546.8947872171
1.0173832546312831e6
1.0303539566427653e6
1.038845292266399e6
1.0460756536877912e6
1.0524531527435442e6
1.0580183440042387e6
1.062762330443126e6
1.0666596014230303e6
1.0696690207715798e6
1.0717353990427684e6
1.072784189687446e6
1.0727442126516295e6
1.0714917402027047e6
1.069123293951451e6
1.0651656998870722e6
1.0619022655798509e6
1.0513154341840132e6
1.0778049268835173e6
99999.9999999997
100000.00000000003
99999.99999999994
99999.99999999766
100000.0000000116
99999.99999995035
100000.00000018309
99999.99999936047
100000.0000021419
99999.99999301143
100000.00002235176
99999.99992955798
100000.00021946077
99999.99932243518
100000.0020767643
99999.99367196539
100000.01918976514
99999.942033894
100000.17454272123
99999.47576351634
100001.57149847296
99995.29802003305
100013.90478519943
99965.64441868907
99842.61885106914
118320.41690716476
251342.37725527157
532174.0300787811
814069.4669487517
961371.9815861019
1.0072333907023587e6
1.0217324925482738e6
1.0299390799677926e6
1.0365261495085988e6
1.0421362411886154e6
1.0468282431900891e6
1.0505772883569698e6
1.0533314458719324e6
1.0550122565502287e6
1.0555110415242254e6
1.0546730537087922e6
1.0523061052466307e6
1.0480897683189616e6
1.0417758829061044e6
1.0323404346949102e6
1.021181557199748e6
998847.0755570332
1.0169106668580283e6
100000.00000000036
99999.99999999844
100000.0000000044
99999.99999998629
100000.00000004166
99999.99999987133
100000.00000038958
99999.99999882231
100000.00000353389
99999.99998944216
100000.00003141019
99999.99990687109
100000.00027529661
99999.99918824357
100000.00238845353
99999.99298511197
100000.02057152953
99999.93974784478
100000.17629825712
99999.48454326045
100001.50607015047
99995.60879088474
100012.54158727809
99972.00160830554
99829.92056369428
110088.30580812492
213973.37261054557
472495.62353650597
765542.6507365884
937520.5136185791
995428.9852526252
1.0124363592020251e6
1.0205223759475381e6
1.0264459253821567e6
1.0312262517237376e6
1.0349617003734565e6
1.0376091961285867e6
1.0390825848480274e6
1.0392536064159016e6
1.0379454580898015e6
1.0349116053397715e6
1.0298358893741535e6
1.0222552746626752e6
1.0117921553664921e6
997457.2129652106
980974.0281581982
953211.2484276416
976342.712039736
100000.00000000051
99999.99999999773
100000.00000000594
99999.99999998228
100000.00000005098
99999.99999985035
100000.00000043404
99999.99999874021
100000.00000364314
99999.9999894834
100000.00003029163
99999.9999129096
100000.00024993367
99999.99928394542
100000.00204814754
99999.99415077173
100000.01667927143
99999.95250910036
100000.13502214356
99999.61668620225
100001.08630620985
99996.93366220866
100008.42623700463
99982.47555041125
99887.25177850711
104707.92991365872
180831.86860066678
411102.2077165321
709456.5383723145
907797.7931328281
981413.4068635888
1.0023657891873992e6
1.0106299625075929e6
1.0159061879868038e6
1.0198120286307901e6
1.022524776816677e6
1.0239847072688267e6
1.0240632371229016e6
1.0225662552176402e6
1.0192181248107268e6
1.0136074452362878e6
1.0051247417389286e6
992741.5447549637
974878.4497602801
947841.170821355
906718.1491468431
827941.7612113345
699234.3388517784
100000.00000000057
99999.99999999783
100000.00000000563
99999.99999998328
100000.00000004681
99999.9999998671
100000.00000037454
99999.99999894328
100000.00000296994
99999.99999166856
100000.00002330678
99999.99993497755
100000.00018085283
99999.99949862708
100000.00138486517
99999.99619048447
100000.01043026216
99999.97159708753
100000.07685201509
99999.79364586736
100000.54872199144
99998.56295794676
100003.57724783642
99994.27607285275
99938.56873060472
101679.26427338344
153137.30192360614
350006.31417107355
646011.8506533669
870882.3357117698
964390.1044879053
991335.3335570846
1.0002826828367844e6
1.0049858299090158e6
1.0079990612658381e6
1.0096490315804331e6
1.0098705376654773e6
1.0084901110438469e6
1.0052501857452209e6
999772.0910164581
991487.0012361682
979532.9808334729
962476.237152611
938091.174180402
901828.1878159456
847742.1523931546
756328.1302882311
619502.0858654048
100000.00000000047
99999.99999999825
100000.0000000045
99999.99999998708
100000.00000003533
99999.99999990182
100000.00000026834
99999.99999926615
100000.00000199498
99999.99999460093
100000.00001452223
99999.99996120509
100000.00010276909
99999.99973052197
100000.00069764596
99999.99822331303
100000.0044265468
99999.98930450481
100000.0246846506
99999.94718995427
100000.09721785266
99999.88746967044
99999.76367170709
100003.43341485968
99964.85045738962
100306.92026340048
131682.2079836791
291579.0879593448
576112.4103446322
825462.5585530156
943264.8246176294
979025.0070444568
989469.6142282496
993764.1484728202
995903.5053495822
996483.3364034478
995456.8802534536
992618.8168200551
987656.4616857363
980114.7370150086
969319.2800089405
954271.7891389895
933390.3392940477
904349.874821104
862906.55167556
804120.1530902853
714897.5784929869
593778.4431751012
100000.0000000003
99999.99999999897
100000.0000000031
99999.99999999136
100000.00000002258
99999.99999993914
100000.00000015959
99999.99999958288
100000.00000107622
99999.99999725904
100000.0000068526
99999.99998327433
100000.00003944384
99999.99991170154
100000.00018084333
99999.9996927023
100000.00026335794
100000.00105434803
99999.99166722123
100000.03950569531
99999.8406701964
100000.5938830215
99997.87495482131
100007.52178941191
99975.9489765909
99882.2596623209
116608.60777849467
238345.9041850796
501524.61907379393
770469.6084910944
916611.4044989918
964913.9897003133
978120.5925982187
982309.5279173515
983643.6148504692
983181.4660395475
980941.227228824
976705.2830251381
970126.3212942852
960707.3220210732
947732.0798630423
930178.9149357728
906516.7488337682
874638.5284891443
831069.4328944533
772253.244349575
690182.3513573334
586465.5003262571
100000.00000000023
99999.99999999921
100000.00000000188
99999.99999999505
100000.00000001189
99999.99999996946
100000.00000007403
99999.99999982268
100000.00000040598
99999.9999991228
100000.00000169621
99999.9999974529
100000.00000073545
100000.00001648307
99999.99990013882
100000.00043497593
99999.99833324242
100000.00596139078
99999.97958163086
100000.0678761025
99999.7792635411
100000.7059159229
99997.77283578593
100006.84155244133
99984.2769924147
99855.89296400522
107289.09290706369
192674.84396618992
424931.00133669196
705405.2572210906
882694.125754439
948195.9514860988
966064.7044834767
970662.9824722687
971329.5660073311
969890.6387349387
966509.6900122568
960982.392580334
952951.911509354
941913.606160932
927163.7898967379
907739.1286582574
882275.4083114036
849015.4478743692
805326.1287334316
748841.0743391222
674977.642496754
586136.4191124105
100000.00000000006
99999.99999999967
100000.00000000083
99999.9999999978
100000.00000000448
99999.99999998951
100000.00000002015
99999.99999996685
100000.0000000247
100000.00000012039
99999.99999912913
100000.00000392027
99999.99998490947
100000.00005358558
99999.9998189613
100000.0005908967
99999.99812063653
100000.00585467418
99999.98207931357
100000.05399666232
99999.83970274491
100000.46882975042
99998.65299027081
100003.68643908895
99993.57498849063
99918.19296888786
102434.60665804733
156373.39637461354
349813.569357117
630731.777265954
839595.6967349966
927683.5481727612
952969.4294937196
958814.2579989404
959051.684793669
956742.6087319638
952324.2633387733
945644.3181729567
936360.562645152
923989.5792348904