# vtk DataFile Version 2.0
JuliaCFD
ASCII
DATASET UNSTRUCTURED_GRID

POINTS 32898 float
0.0 0.0 -0.05
0.0125 0.0 -0.05
0.025 0.0 -0.05
0.0375 0.0 -0.05
0.05 0.0 -0.05
0.0625 0.0 -0.05
0.075 0.0 -0.05
0.0875 0.0 -0.05
0.1 0.0 -0.05
0.1125 0.0 -0.05
0.125 0.0 -0.05
0.1375 0.0 -0.05
0.15 0.0 -0.05
0.1625 0.0 -0.05
0.175 0.0 -0.05
0.1875 0.0 -0.05
0.2 0.0 -0.05
0.2125 0.0 -0.05
0.225 0.0 -0.05
0.2375 0.0 -0.05
0.25 0.0 -0.05
0.2625 0.0 -0.05
0.275 0.0 -0.05
0.2875 0.0 -0.05
0.3 0.0 -0.05
0.3125 0.0 -0.05
0.325 0.0 -0.05
0.3375 0.0 -0.05
0.35 0.0 -0.05
0.3625 0.0 -0.05
0.375 0.0 -0.05
0.3875 0.0 -0.05
0.4 0.0 -0.05
0.4125 0.0 -0.05
0.425 0.0 -0.05
0.4375 0.0 -0.05
0.45 0.0 -0.05
0.4625 0.0 -0.05
0.475 0.0 -0.05
0.4875 0.0 -0.05
0.5 0.0 -0.05
0.5125 0.0 -0.05
0.525 0.0 -0.05
0.5375 0.0 -0.05
0.55 0.0 -0.05
0.5625 0.0 -0.05
0.575 0.0 -0.05
0.5875 0.0 -0.05
0.6 0.0 -0.05
0.0 0.0125 -0.05
0.0125 0.0125 -0.05
0.025 0.0125 -0.05
0.0375 0.0125 -0.05
0.05 0.0125 -0.05
0.0625 0.0125 -0.05
0.075 0.0125 -0.05
0.0875 0.0125 -0.05
0.1 0.0125 -0.05
0.1125 0.0125 -0.05
0.125 0.0125 -0.05
0.1375 0.0125 -0.05
0.15 0.0125 -0.05
0.1625 0.0125 -0.05
0.175 0.0125 -0.05
0.1875 0.0125 -0.05
0.2 0.0125 -0.05
0.2125 0.0125 -0.05
0.225 0.0125 -0.05
0.2375 0.0125 -0.05
0.25 0.0125 -0.05
0.2625 0.0125 -0.05
0.275 0.0125 -0.05
0.2875 0.0125 -0.05
0.3 0.0125 -0.05
0.3125 0.0125 -0.05
0.325 0.0125 -0.05
0.3375 0.0125 -0.05
0.35 0.0125 -0.05
0.3625 0.0125 -0.05
0.375 0.0125 -0.05
0.3875 0.0125 -0.05
0.4 0.0125 -0.05
0.4125 0.0125 -0.05
0.425 0.0125 -0.05
0.4375 0.0125 -0.05
0.45 0.0125 -0.05
0.4625 0.0125 -0.05
0.475 0.0125 -0.05
0.4875 0.0125 -0.05
0.5 0.0125 -0.05
0.5125 0.0125 -0.05
0.525 0.0125 -0.05
0.5375 0.0125 -0.05
0.55 0.0125 -0.05
0.5625 0.0125 -0.05
0.575 0.0125 -0.05
0.5875 0.0125 -0.05
0.6 0.0125 -0.05
0.0 0.025 -0.05
0.0125 0.025 -0.05
0.025 0.025 -0.05
0.0375 0.025 -0.05
0.05 0.025 -0.05
0.0625 0.025 -0.05
0.075 0.025 -0.05
0.0875 0.025 -0.05
0.1 0.025 -0.05
0.1125 0.025 -0.05
0.125 0.025 -0.05
0.1375 0.025 -0.05
0.15 0.025 -0.05
0.1625 0.025 -0.05
0.175 0.025 -0.05
0.1875 0.025 -0.05
0.2 0.025 -0.05
0.2125 0.025 -0.05
0.225 0.025 -0.05
0.2375 0.025 -0.05
0.25 0.025 -0.05
0.2625 0.025 -0.05
0.275 0.025 -0.05
0.2875 0.025 -0.05
0.3 0.025 -0.05
0.3125 0.025 -0.05
0.325 0.025 -0.05
0.3375 0.025 -0.05
0.35 0.025 -0.05
0.3625 0.025 -0.05
0.375 0.025 -0.05
0.3875 0.025 -0.05
0.4 0.025 -0.05
0.4125 0.025 -0.05
0.425 0.025 -0.05
0.4375 0.025 -0.05
0.45 0.025 -0.05
0.4625 0.025 -0.05
0.475 0.025 -0.05
0.4875 0.025 -0.05
0.5 0.025 -0.05
0.5125 0.025 -0.05
0.525 0.025 -0.05
0.5375 0.025 -0.05
0.55 0.025 -0.05
0.5625 0.025 -0.05
0.575 0.025 -0.05
0.5875 0.025 -0.05
0.6 0.025 -0.05
0.0 0.0375 -0.05
0.0125 0.0375 -0.05
0.025 0.0375 -0.05
0.0375 0.0375 -0.05
0.05 0.0375 -0.05
0.0625 0.0375 -0.05
0.075 0.0375 -0.05
0.0875 0.0375 -0.05
0.1 0.0375 -0.05
0.1125 0.0375 -0.05
0.125 0.0375 -0.05
0.1375 0.0375 -0.05
0.15 0.0375 -0.05
0.1625 0.0375 -0.05
0.175 0.0375 -0.05
0.1875 0.0375 -0.05
0.2 0.0375 -0.05
0.2125 0.0375 -0.05
0.225 0.0375 -0.05
0.2375 0.0375 -0.05
0.25 0.0375 -0.05
0.2625 0.0375 -0.05
0.275 0.0375 -0.05
0.2875 0.0375 -0.05
0.3 0.0375 -0.05
0.3125 0.0375 -0.05
0.325 0.0375 -0.05
0.3375 0.0375 -0.05
0.35 0.0375 -0.05
0.3625 0.0375 -0.05
0.375 0.0375 -0.05
0.3875 0.0375 -0.05
0.4 0.0375 -0.05
0.4125 0.0375 -0.05
0.425 0.0375 -0.05
0.4375 0.0375 -0.05
0.45 0.0375 -0.05
0.4625 0.0375 -0.05
0.475 0.0375 -0.05
0.4875 0.0375 -0.05
0.5 0.0375 -0.05
0.5125 0.0375 -0.05
0.525 0.0375 -0.05
0.5375 0.0375 -0.05
0.55 0.0375 -0.05
0.5625 0.0375 -0.05
0.575 0.0375 -0.05
0.5875 0.0375 -0.05
0.6 0.0375 -0.05
0.0 0.05 -0.05
0.0125 0.05 -0.05
0.025 0.05 -0.05
0.0375 0.05 -0.05
0.05 0.05 -0.05
0.0625 0.05 -0.05
0.075 0.05 -0.05
0.0875 0.05 -0.05
0.1 0.05 -0.05
0.1125 0.05 -0.05
0.125 0.05 -0.05
0.1375 0.05 -0.05
0.15 0.05 -0.05
0.1625 0.05 -0.05
0.175 0.05 -0.05
0.1875 0.05 -0.05
0.2 0.05 -0.05
0.2125 0.05 -0.05
0.225 0.05 -0.05
0.2375 0.05 -0.05
0.25 0.05 -0.05
0.2625 0.05 -0.05
0.275 0.05 -0.05
0.2875 0.05 -0.05
0.3 0.05 -0.05
0.3125 0.05 -0.05
0.325 0.05 -0.05
0.3375 0.05 -0.05
0.35 0.05 -0.05
0.3625 0.05 -0.05
0.375 0.05 -0.05
0.3875 0.05 -0.05
0.4 0.05 -0.05
0.4125 0.05 -0.05
0.425 0.05 -0.05
0.4375 0.05 -0.05
0.45 0.05 -0.05
0.4625 0.05 -0.05
0.475 0.05 -0.05
0.4875 0.05 -0.05
0.5 0.05 -0.05
0.5125 0.05 -0.05
0.525 0.05 -0.05
0.5375 0.05 -0.05
0.55 0.05 -0.05
0.5625 0.05 -0.05
0.575 0.05 -0.05
0.5875 0.05 -0.05
0.6 0.05 -0.05
0.0 0.0625 -0.05
0.0125 0.0625 -0.05
0.025 0.0625 -0.05
0.0375 0.0625 -0.05
0.05 0.0625 -0.05
0.0625 0.0625 -0.05
0.075 0.0625 -0.05
0.0875 0.0625 -0.05
0.1 0.0625 -0.05
0.1125 0.0625 -0.05
0.125 0.0625 -0.05
0.1375 0.0625 -0.05
0.15 0.0625 -0.05
0.1625 0.0625 -0.05
0.175 0.0625 -0.05
0.1875 0.0625 -0.05
0.2 0.0625 -0.05
0.2125 0.0625 -0.05
0.225 0.0625 -0.05
0.2375 0.0625 -0.05
0.25 0.0625 -0.05
0.2625 0.0625 -0.05
0.275 0.0625 -0.05
0.2875 0.0625 -0.05
0.3 0.0625 -0.05
0.3125 0.0625 -0.05
0.325 0.0625 -0.05
0.3375 0.0625 -0.05
0.35 0.0625 -0.05
0.3625 0.0625 -0.05
0.375 0.0625 -0.05
0.3875 0.0625 -0.05
0.4 0.0625 -0.05
0.4125 0.0625 -0.05
0.425 0.0625 -0.05
0.4375 0.0625 -0.05
0.45 0.0625 -0.05
0.4625 0.0625 -0.05
0.475 0.0625 -0.05
0.4875 0.0625 -0.05
0.5 0.0625 -0.05
0.5125 0.0625 -0.05
0.525 0.0625 -0.05
0.5375 0.0625 -0.05
0.55 0.0625 -0.05
0.5625 0.0625 -0.05
0.575 0.0625 -0.05
0.5875 0.0625 -0.05
0.6 0.0625 -0.05
0.0 0.075 -0.05
0.0125 0.075 -0.05
0.025 0.075 -0.05
0.0375 0.075 -0.05
0.05 0.075 -0.05
0.0625 0.075 -0.05
0.075 0.075 -0.05
0.0875 0.075 -0.05
0.1 0.075 -0.05
0.1125 0.075 -0.05
0.125 0.075 -0.05
0.1375 0.075 -0.05
0.15 0.075 -0.05
0.1625 0.075 -0.05
0.175 0.075 -0.05
0.1875 0.075 -0.05
0.2 0.075 -0.05
0.2125 0.075 -0.05
0.225 0.075 -0.05
0.2375 0.075 -0.05
0.25 0.075 -0.05
0.2625 0.075 -0.05
0.275 0.075 -0.05
0.2875 0.075 -0.05
0.3 0.075 -0.05
0.3125 0.075 -0.05
0.325 0.075 -0.05
0.3375 0.075 -0.05
0.35 0.075 -0.05
0.3625 0.075 -0.05
0.375 0.075 -0.05
0.3875 0.075 -0.05
0.4 0.075 -0.05
0.4125 0.075 -0.05
0.425 0.075 -0.05
0.4375 0.075 -0.05
0.45 0.075 -0.05
0.4625 0.075 -0.05
0.475 0.075 -0.05
0.4875 0.075 -0.05
0.5 0.075 -0.05
0.5125 0.075 -0.05
0.525 0.075 -0.05
0.5375 0.075 -0.05
0.55 0.075 -0.05
0.5625 0.075 -0.05
0.575 0.075 -0.05
0.5875 0.075 -0.05
0.6 0.075 -0.05
0.0 0.0875 -0.05
0.0125 0.0875 -0.05
0.025 0.0875 -0.05
0.0375 0.0875 -0.05
0.05 0.0875 -0.05
0.0625 0.0875 -0.05
0.075 0.0875 -0.05
0.0875 0.0875 -0.05
0.1 0.0875 -0.05
0.1125 0.0875 -0.05
0.125 0.0875 -0.05
0.1375 0.0875 -0.05
0.15 0.0875 -0.05
0.1625 0.0875 -0.05
0.175 0.0875 -0.05
0.1875 0.0875 -0.05
0.2 0.0875 -0.05
0.2125 0.0875 -0.05
0.225 0.0875 -0.05
0.2375 0.0875 -0.05
0.25 0.0875 -0.05
0.2625 0.0875 -0.05
0.275 0.0875 -0.05
0.2875 0.0875 -0.05
0.3 0.0875 -0.05
0.3125 0.0875 -0.05
0.325 0.0875 -0.05
0.3375 0.0875 -0.05
0.35 0.0875 -0.05
0.3625 0.0875 -0.05
0.375 0.0875 -0.05
0.3875 0.0875 -0.05
0.4 0.0875 -0.05
0.4125 0.0875 -0.05
0.425 0.0875 -0.05
0.4375 0.0875 -0.05
0.45 0.0875 -0.05
0.4625 0.0875 -0.05
0.475 0.0875 -0.05
0.4875 0.0875 -0.05
0.5 0.0875 -0.05
0.5125 0.0875 -0.05
0.525 0.0875 -0.05
0.5375 0.0875 -0.05
0.55 0.0875 -0.05
0.5625 0.0875 -0.05
0.575 0.0875 -0.05
0.5875 0.0875 -0.05
0.6 0.0875 -0.05
0.0 0.1 -0.05
0.0125 0.1 -0.05
0.025 0.1 -0.05
0.0375 0.1 -0.05
0.05 0.1 -0.05
0.0625 0.1 -0.05
0.075 0.1 -0.05
0.0875 0.1 -0.05
0.1 0.1 -0.05
0.1125 0.1 -0.05
0.125 0.1 -0.05
0.1375 0.1 -0.05
0.15 0.1 -0.05
0.1625 0.1 -0.05
0.175 0.1 -0.05
0.1875 0.1 -0.05
0.2 0.1 -0.05
0.2125 0.1 -0.05
0.225 0.1 -0.05
0.2375 0.1 -0.05
0.25 0.1 -0.05
0.2625 0.1 -0.05
0.275 0.1 -0.05
0.2875 0.1 -0.05
0.3 0.1 -0.05
0.3125 0.1 -0.05
0.325 0.1 -0.05
0.3375 0.1 -0.05
0.35 0.1 -0.05
0.3625 0.1 -0.05
0.375 0.1 -0.05
0.3875 0.1 -0.05
0.4 0.1 -0.05
0.4125 0.1 -0.05
0.425 0.1 -0.05
0.4375 0.1 -0.05
0.45 0.1 -0.05
0.4625 0.1 -0.05
0.475 0.1 -0.05
0.4875 0.1 -0.05
0.5 0.1 -0.05
0.5125 0.1 -0.05
0.525 0.1 -0.05
0.5375 0.1 -0.05
0.55 0.1 -0.05
0.5625 0.1 -0.05
0.575 0.1 -0.05
0.5875 0.1 -0.05
0.6 0.1 -0.05
0.0 0.1125 -0.05
0.0125 0.1125 -0.05
0.025 0.1125 -0.05
0.0375 0.1125 -0.05
0.05 0.1125 -0.05
0.0625 0.1125 -0.05
0.075 0.1125 -0.05
0.0875 0.1125 -0.05
0.1 0.1125 -0.05
0.1125 0.1125 -0.05
0.125 0.1125 -0.05
0.1375 0.1125 -0.05
0.15 0.1125 -0.05
0.1625 0.1125 -0.05
0.175 0.1125 -0.05
0.1875 0.1125 -0.05
0.2 0.1125 -0.05
0.2125 0.1125 -0.05
0.225 0.1125 -0.05
0.2375 0.1125 -0.05
0.25 0.1125 -0.05
0.2625 0.1125 -0.05
0.275 0.1125 -0.05
0.2875 0.1125 -0.05
0.3 0.1125 -0.05
0.3125 0.1125 -0.05
0.325 0.1125 -0.05
0.3375 0.1125 -0.05
0.35 0.1125 -0.05
0.3625 0.1125 -0.05
0.375 0.1125 -0.05
0.3875 0.1125 -0.05
0.4 0.1125 -0.05
0.4125 0.1125 -0.05
0.425 0.1125 -0.05
0.4375 0.1125 -0.05
0.45 0.1125 -0.05
0.4625 0.1125 -0.05
0.475 0.1125 -0.05
0.4875 0.1125 -0.05
0.5 0.1125 -0.05
0.5125 0.1125 -0.05
0.525 0.1125 -0.05
0.5375 0.1125 -0.05
0.55 0.1125 -0.05
0.5625 0.1125 -0.05
0.575 0.1125 -0.05
0.5875 0.1125 -0.05
0.6 0.1125 -0.05
0.0 0.125 -0.05
0.0125 0.125 -0.05
0.025 0.125 -0.05
0.0375 0.125 -0.05
0.05 0.125 -0.05
0.0625 0.125 -0.05
0.075 0.125 -0.05
0.0875 0.125 -0.05
0.1 0.125 -0.05
0.1125 0.125 -0.05
0.125 0.125 -0.05
0.1375 0.125 -0.05
0.15 0.125 -0.05
0.1625 0.125 -0.05
0.175 0.125 -0.05
0.1875 0.125 -0.05
0.2 0.125 -0.05
0.2125 0.125 -0.05
0.225 0.125 -0.05
0.2375 0.125 -0.05
0.25 0.125 -0.05
0.2625 0.125 -0.05
0.275 0.125 -0.05
0.2875 0.125 -0.05
0.3 0.125 -0.05
0.3125 0.125 -0.05
0.325 0.125 -0.05
0.3375 0.125 -0.05
0.35 0.125 -0.05
0.3625 0.125 -0.05
0.375 0.125 -0.05
0.3875 0.125 -0.05
0.4 0.125 -0.05
0.4125 0.125 -0.05
0.425 0.125 -0.05
0.4375 0.125 -0.05
0.45 0.125 -0.05
0.4625 0.125 -0.05
0.475 0.125 -0.05
0.4875 0.125 -0.05
0.5 0.125 -0.05
0.5125 0.125 -0.05
0.525 0.125 -0.05
0.5375 0.125 -0.05
0.55 0.125 -0.05
0.5625 0.125 -0.05
0.575 0.125 -0.05
0.5875 0.125 -0.05
0.6 0.125 -0.05
0.0 0.1375 -0.05
0.0125 0.1375 -0.05
0.025 0.1375 -0.05
0.0375 0.1375 -0.05
0.05 0.1375 -0.05
0.0625 0.1375 -0.05
0.075 0.1375 -0.05
0.0875 0.1375 -0.05
[...]
CELL_DATA 16128
SCALARS P float 1
LOOKUP_TABLE default
99999.99999999972
100000.00000000047
99999.99999999827
100000.00000000515
99999.99999998401
100000.0000000467
99999.99999986267
100000.00000039648
99999.99999886422
100000.00000322072
99999.99999094906
100000.0000251956
99999.99993051175
100000.00018979609
99999.9994868349
100000.0013724524
99999.99637292411
100000.00945800394
99999.97571513845
100000.06122005507
99999.84913032084
100000.36105294066
99999.17013475175
100001.79546741532
99996.48835241773
100006.14765707182
99964.97847222883
101194.49377761355
159923.69383799186
392626.3856045984
744105.5936317738
1.0054123484064452e6
1.0971731455050453e6
1.1181681822747304e6
1.1307646400573351e6
1.1426452910091777e6
1.153837589084874e6
1.1642873791919874e6
1.173965561228463e6
1.182854729632261e6
1.1909199046328457e6
1.1981695210276055e6
1.204464550559564e6
1.2100755387582271e6
1.21404894044351e6
1.2190174789408725e6
1.2170543691747682e6
1.2313213481321663e6
99999.99999999971
100000.0000000005
99999.99999999834
100000.0000000051
99999.99999998427
100000.00000004545
99999.9999998658
100000.0000003875
99999.99999888733
100000.00000316072
99999.99999110082
100000.00002482298
99999.99993139147
100000.00018783422
99999.99949082229
100000.00136571296
99999.99637905604
100000.00947667667
99999.97556458152
100000.0619031032
99999.846545923
100000.36994922164
99999.14127413553
100001.88549243262
99996.21587233435
100006.8900517133
99965.59412867266
101107.20797255864
158767.46402258857
390793.79954562476
744930.820813371
1.0111797534955544e6
1.1062179080333863e6
1.1285072877829338e6
1.1417238911522692e6
1.1539751655558208e6
1.1654217649478053e6
1.1760744580582434e6
1.185932210290306e6
1.19498560974175e6
1.203197255218616e6
1.2105675304024213e6
1.2169481233870848e6
1.2225993696736344e6
1.2265627138338054e6
1.231479927133979e6
1.2293634132669189e6
1.2438156707897873e6
99999.99999999972
100000.00000000064
99999.9999999984
100000.00000000466
99999.99999998543
100000.0000000427
99999.99999987378
100000.00000036672
99999.99999894331
100000.0000030142
99999.99999147722
100000.00002388093
99999.99993367014
100000.00018257793
99999.9995020914
100000.00134458116
99999.99640717688
100000.00948926626
99999.9752638152
100000.06350876717
99999.83987747767
100000.39473811015
99999.05483355114
100002.1742196659
99995.28608912746
100009.64870216949
99963.13636643336
100921.84886178389
155715.571146753
382980.62640766916
735359.7381513296
1.0040745225946106e6
1.1014703352154533e6
1.1241326078270434e6
1.1371697361678493e6
1.1492173020830706e6
1.1604626168575324e6
1.1709117200766285e6
1.1805630256838824e6
1.18940965400624e6
1.1974198321926107e6
1.2045993933681496e6
1.2108116921645387e6
1.2163145263457792e6
1.2201809438080376e6
1.2250004016171363e6
1.2228441895052902e6
1.2375287482114418e6
99999.99999999985
100000.00000000044
99999.9999999986
100000.0000000041
99999.9999999867
100000.00000003853
99999.99999988511
100000.00000033554
99999.99999902697
100000.00000279216
99999.99999205492
100000.00002241155
99999.99993730529
100000.00017391924
99999.99952161066
100000.00130436782
99999.9964762702
100000.00942515787
99999.97506335993
100000.06517299128
99999.8320543489
100000.42559849621
99998.94343923275
100002.55447828455
99994.04405669527
100013.36960262373
99959.81796088605
100665.48591500071
151039.33599860338
370858.4565954779
721296.3317252663
995604.6116498512
1.0981543717462034e6
1.122165962959468e6
1.1353818555434383e6
1.147486519627116e6
1.1587615461706524e6
1.169228179377671e6
1.1788955284147523e6
1.187763622780585e6
1.1958057403223843e6
1.203027991244304e6
1.209298141616904e6
1.2148584749010429e6
1.2188049161759089e6
1.2236617300872433e6
1.221525822248396e6
1.2366065100845625e6
99999.99999999997
100000.00000000028
99999.99999999865
100000.00000000346
99999.99999998856
100000.00000003353
99999.99999989952
100000.00000029564
99999.99999913565
100000.0000025002
99999.99999282692
100000.00002040635
99999.99994239795
100000.00016134311
99999.99955151035
100000.00123711693
99999.99661433214
100000.00918976017
99999.97527328036
100000.06590412612
99999.82617945719
100000.45302587075
99998.83554751004
100002.94332098658
99992.72244375457
100017.46875493215
99955.56306764859
100388.07548470503
145048.62324648834
354624.99351967697
701981.7542130967
983600.2151461255
1.0931496548363073e6
1.1188889409342837e6
1.1321327371660564e6
1.144120023479045e6
1.1552657479557989e6
1.1655972987916088e6
1.1751289790139056e6
1.1838652340016074e6
1.191784228389313e6
1.1988934442973076e6
1.2050689272280366e6
1.2105396253906612e6
1.2144357854024016e6
1.2192152204762632e6
1.2170167568396318e6
1.2325329810730352e6
99999.99999999981
100000.00000000019
99999.99999999886
100000.00000000265
99999.99999999074
100000.00000002734
99999.9999999165
100000.00000024862
99999.99999926476
100000.00000214775
99999.99999377585
100000.00001788819
99999.99994897016
100000.00014453472
99999.99959342262
100000.00113605014
99999.99684673076
100000.00869382439
99999.97619450217
100000.0647196052
99999.82537826648
100000.46730012032
99998.76077777513
100003.25221851812
99991.57987071875
100021.24795674786
99950.67837121378
100139.83726993759
138144.53575153826
334681.34180306375
677371.8399837487
967894.5523688635
1.086737050281668e6
1.1149822666642165e6
1.1283224404883569e6
1.1401789135246498e6
1.1511805711934548e6
1.1613636079321664e6
1.1707482564908671e6
1.1793444215951068e6
1.1871361275382533e6
1.1941325908748861e6
1.2002184506430104e6
1.2056078737946907e6
1.2094656219549603e6
1.2141823572870172e6
1.2119203190681043e6
1.2279951617431303e6
99999.99999999984
99999.99999999997
99999.99999999932
100000.00000000201
99999.99999999294
100000.00000002116
99999.99999993452
100000.00000019776
99999.99999940791
100000.00000175115
99999.99999486361
100000.00001493895
99999.99995686712
100000.0001236917
99999.99964751718
100000.00099850667
99999.99718744765
100000.00787891884
99999.97804690406
100000.06084146697
99999.83229193503
100000.459719625
99998.74715052133
100003.39257571849
99990.89153998291
100023.89755037648
99946.27089136637
99958.63796124756
130789.8793656138
311550.7481167464
647397.6875839641
947929.2661688024
1.0785010889248755e6
1.110220616682804e6
1.1237327882682623e6
1.135403289283099e6
1.1461975057007743e6
1.156165885214337e6
1.1653341376314282e6
1.173717788481202e6
1.1813074424952138e6
1.1881152821485186e6
1.1940364785384198e6
1.1992728613026137e6
1.20302699580939e6
1.2076308038552057e6
1.205253026932573e6
1.2220014712257546e6
100000.0
100000.00000000006
99999.99999999956
100000.00000000138
99999.99999999507
100000.00000001467
99999.99999995272
100000.00000014552
99999.99999955608
100000.0000013337
99999.99999602966
100000.00001171211
99999.9999657119
100000.0000996939
99999.9997118939
100000.00082801547
99999.99763221998
100000.0067395588
99999.980899321
100000.05391426232
99999.84840673067
100000.42465267122
99998.81480364417
100003.29513657793
99990.8889060712
100024.67531742064
99944.10968591792
99861.30791821862
123479.85256723878
285902.7936173714
612089.7692253218
923115.3516358812
1.0680340819752587e6
1.1045173053158275e6
1.1183646919003555e6
1.1298090365738652e6
1.140337951150234e6
1.150028990024242e6
1.1589134915630727e6
1.1670130516008015e6
1.174325812710972e6
1.1808686384429603e6
1.1865491624453715e6
1.1915610747536104e6
1.195143262506995e6
1.1995832311492634e6
1.197037437576662e6
1.214611882522338e6
100000.00000000009
100000.0
99999.99999999981
100000.00000000061
99999.99999999708
100000.00000000898
99999.99999996979
100000.00000009588
99999.99999969958
100000.00000092322
99999.99999719518
100000.00000842442
99999.99997491731
100000.00007411028
99999.99978244421
100000.00063507396
99999.99815512431
100000.00533664106
99999.98461994436
100000.04418074024
99999.8734502992
100000.36156219675
99998.96934795314
100002.9313394445
99991.69224721787
100023.11448350715
99946.13500875555
99840.78102944285
116699.76052418376
258564.3168260863
571619.932008379
892800.9107719195
1.054789636781159e6
1.0977188214375577e6
1.11217645867489e6
1.1233589098927758e6
1.1335529847002006e6
1.142888082605554e6
1.1514015472730934e6
1.1591208904568725e6
1.1660520493066674e6
1.1722176476664764e6
1.1775398223551114e6
1.1822039062988523e6
1.185496353727023e6
1.1896690374339141e6
1.1868452102957e6
1.2054244094794495e6
100000.00000000006
99999.99999999991
100000.0
100000.00000000012
99999.99999999873
100000.00000000397
99999.9999999845
100000.00000005214
99999.99999982798
100000.00000054993
99999.99999827397
100000.0000053264
99999.99998376147
100000.00004900462
99999.99985331496
100000.00043612026
99999.99871049866
100000.00379535982
99999.98887097734
100000.03253397201
99999.90512436873
100000.27614330898
99999.19745748064
100002.32942346224
99993.25415621893
100019.21849619645
99953.56879950827
99870.95291738126
110870.20439034246
230520.8420544418
526369.6406058113
856317.9622487709
1.0380711881131622e6
1.0896137424172491e6
1.1051287128729739e6
1.1160300901980447e6
1.1258105882097648e6
1.1346966081521355e6
1.142732947674621e6
1.1499523967567866e6
1.156368484060291e6
1.16201138978317e6
1.1668167178640775e6
1.1709708726850555e6
1.1738197088609452e6
1.1775916823520118e6
1.1743495378744786e6
1.1941727725718273e6
100000.00000000006
99999.9999999999
100000.00000000016
99999.9999999998
100000.0000000001
100000.00000000022
99999.9999999965
100000.0000000168
99999.9999999328
100000.00000023941
99999.99999918675
100000.0000026593
99999.99999151548
100000.00002656727
99999.99991796237
100000.00025059086
99999.9992409763
100000.00228389345
99999.9931630145
100000.02038643768
99999.93939055149
100000.17981587617
99999.46726050462
100001.57687958475
99995.34029557141
100013.56605962417
99966.08789360407
99918.26923040985
106285.78942663297
202896.6666639176
477002.4088374847
813049.7909073133
1.0170039740155109e6
1.0798939430619758e6
1.0971689453666618e6
1.1078039399807616e6
1.1170832244747952e6
1.1254093500470468e6
1.13283789072442e6
1.1394040290848955e6
1.145125190572298e6
1.15003501515053e6
1.1540775799959206e6
1.1574387091035924e6
1.1595290589913577e6
1.162565249477163e6
1.1585415247067397e6
1.1798022571459706e6
99999.99999999987
99999.99999999971
100000.00000000026
99999.99999999946
100000.00000000106
99999.99999999761
100000.00000000435
99999.99999999156
100000.00000000936
100000.00000000896
99999.99999987688
100000.00000060527
99999.99999759629
100000.00000864694
99999.99997057403
100000.00009663047
99999.99969029347
100000.0009756052
99999.99696514163
100000.00935417102
99999.97136013793
100000.08727411034
99999.73489054105
100000.80365819111
99997.56952982371
100007.23626267824
99981.54254718476
99955.61109714187
103061.78902725347
176902.77063833713
424531.52905164496
762533.5989299394
990523.5648116494
1.0681098073552905e6
1.0882198254995546e6
1.0986689430211256e6
1.1073558780415724e6
1.114994946207331e6
1.1216616597486935e6
1.1273899141989239e6
1.1321979126504532e6
1.1361145506436052e6
1.1391012889663787e6
1.1413578669643728e6
1.142366096510995e6
1.1443733370024748e6
1.139283991916672e6
1.1624317053571993e6
100000.00000000006
99999.9999999999
100000.00000000007
99999.99999999935
100000.00000000151
99999.9999999961
100000.00000000912
99999.99999997678
100000.00000005591
99999.99999986385
100000.00000032228
99999.9999992493
100000.00000169466
99999.99999632663
100000.00000744461
99999.99998667481
100000.00001732139
100000.00000489061
99999.99984258963
100000.00083158347
99999.99659462266
100000.01255006323
99999.95626437174
100000.14740588893
99999.51485955104
100001.5289909983
99996.49506393875
99971.82862108208
101110.03703466152
153739.92215164733
370367.24684545374
704600.4816473594
957392.5292485427
1.053612375750352e6
1.0781569315012377e6
1.0886186933265107e6
1.0966284652331837e6
1.1034374874714776e6
1.1091599840102661e6
1.113819528793356e6
1.1174145257361769e6
1.1199488628904682e6
1.121360002142426e6
1.121805569397492e6
1.1207564928332283e6
1.120439460934577e6
1.1126337703925e6
1.1370918164233232e6
100000.00000000006
99999.9999999999
100000.00000000009
99999.9999999995
100000.00000000146
99999.99999999591
100000.00000001084
99999.99999997088
100000.00000007612
99999.99999979686
100000.00000053845
99999.99999856405
100000.00000383885
99999.99998968736
100000.00002783637
99999.99992442095
100000.00020652384
99999.99943169943
100000.00157543387
99999.99559900153
100000.01238985317
99999.96485188283
100000.10044778326
99999.71092815977
100000.83764343546
99997.5478069029
100007.48035754262
99971.94494015553
100164.69668867973
134447.2222006781
316321.90431657666
639548.3372580007
916267.0131470372
1.0354874203485462e6
1.0667742507031832e6
1.0776488296287148e6
1.0849244420297842e6
1.090755187207885e6
1.0953374682710264e6
1.0986783904224928e6
1.1007439875463275e6
1.101507110867394e6
1.1008912914192395e6
1.09904166430855e6
1.095509251125204e6
1.0926498776486223e6
1.082193457172571e6
1.109645929307144e6
100000.0
99999.99999999981
100000.0000000002
99999.9999999994
100000.00000000122
99999.99999999611
100000.00000001019
99999.99999997181
100000.00000007592
99999.99999979115
100000.00000057189
99999.99999842256
100000.0000043654
99999.99998785145
100000.00003398595
99999.9999043669
100000.000270729
99999.99922877617
100000.00221102832
99999.99362027651
100000.01852665268
99999.94585619301
100000.15922218273
99999.52893016532
100001.40177990994
99995.80906400566
100012.44709913208
99968.67518923855
99863.82366002993
119704.40779285786
264547.4212900672
568328.289131657
865836.7992807332
1.012490811622827e6
1.0537294613982132e6
1.0657442374467608e6
1.072289863046773e6
1.076996571934422e6
1.0802255864937839e6
1.0819466395481457e6
1.0820530014128964e6
1.080395604550706e6
1.0767016505554433e6
1.0707667692005697e6
1.0615853077632654e6
1.05061347517544e6
1.0281185583243456e6
1.0469964855711433e6
100000.0
99999.99999999987
100000.00000000019
99999.99999999956
100000.00000000092
99999.99999999667
100000.00000000803
99999.99999997676
100000.00000006318
99999.99999982421
100000.00000048743
99999.99999863982
100000.00000380592
99999.99998929701
100000.00003023163
99999.99991418059
100000.00024486268
99999.99929763911
100000.00202559453
99999.99412580796
100000.01713098671
99999.94975613934
100000.14820734612
99999.5603048884
100001.31180645287
99996.07020074
100011.62922356368
99971.84325974341
99863.09269517403
109638.30061905697
217379.9412813401
492706.3987090134
805058.8553086399
983006.2380392776
1.0384642485899465e6
1.0528578149999552e6
1.0588008077601122e6
1.0622714636772792e6
1.0639578201168822e6
1.0638053064591426e6
1.0616192406212839e6
1.0571317842031987e6
1.04992668874187e6
1.0396762498014834e6
1.0254301391195366e6
1.0089997426521801e6
980997.207415478
1.0050664926303861e6
99999.99999999993
99999.99999999977
100000.0
99999.99999999948
100000.00000000067
99999.99999999766
100000.00000000568
99999.9999999834
100000.00000004529
99999.9999998738
100000.00000035019
99999.9999990224
100000.00000273276
99999.99999233041
100000.00002159245
99999.99993897948
100000.00017309615
99999.9995070237
100000.00140975292
99999.9959514581
100000.0116774849
99999.96616576661
100000.0984883504
99999.71192730234
100000.84665562144
99997.50343556488
100007.25940308406
99982.66233685441
99929.94448664793
103732.33052482434
177069.21598220523
415345.6158348731
733492.5199769662
945062.7777512438
1.0200930139996249e6
1.0388632233550487e6
1.0445472291621434e6
1.0467308562608603e6
1.0467129586832883e6
1.0444379269208068e6
1.0395546911241105e6
1.0314960279062878e6
1.0192622767089532e6
1.0012856586310436e6
973827.0573374175
931872.5896864722
851164.7299828071
719218.6314525087
100000.0
99999.99999999977
100000.00000000003
99999.99999999945
100000.00000000023
99999.99999999844
100000.00000000338
99999.99999998957
100000.00000002785
99999.99999992264
100000.00000021193
99999.99999941452
100000.00000161535
99999.99999553488
100000.0000123497
99999.99996580546
100000.00009474333
99999.99973734118
100000.00072837008
99999.9979803098
100000.0055975506
99999.9845026722
100000.04283163277
99999.88192947228
100000.32418916315
99999.11687681843
100002.32259662938
99995.56167834377
99969.35943231538
100938.77788921009
145377.2844069631
339740.44566031825
651717.7715791523
896475.9988432182
997272.4955764443
1.0234821597137607e6
1.0296182974521265e6
1.0305855930008269e6
1.0288014415445554e6
1.0243037147974693e6
1.0166095358747147e6
1.0048924203310979e6
987733.0982817315
962895.7973482943
925759.9018141818
870265.10330153
776332.2178252463
635882.6419760695
99999.99999999988
99999.9999999997
99999.99999999993
99999.99999999968
99999.99999999994
99999.999999999
100000.00000000172
99999.99999999432
100000.00000001412
99999.99999996109
100000.0000001032
99999.99999972282
100000.00000073771
99999.99999804319
100000.0000051482
99999.99998657624
100000.00003455777
99999.99991256896
100000.00021571635
99999.99948759755
100000.00114341457
99999.99773323647
100000.003322001
100000.00056340349
99999.9659902659
100000.20331928825
99999.05197069226
100004.2661681224
99978.99812790925
100004.5915262974
123082.418666614
269933.3379832716
561757.201949738
835183.952910338
968080.811326019
1.0061673241942078e6
1.0140520622412905e6
1.0140713000352776e6
1.0105859611607705e6
1.0039361790023288e6
993593.0852102241
978597.6106956761
957378.4795624187
927598.2685720943
884952.4190665903
824426.5646550938
732550.5389988417
608018.4269661413
100000.00000000006
99999.99999999993
99999.99999999994
99999.99999999974
99999.99999999985
99999.9999999994
100000.00000000058
99999.99999999776
100000.00000000508
99999.99999998604
100000.00000003372
99999.99999991685
100000.00000019373
99999.99999957014
100000.00000085647
99999.99999865449
100000.00000052774
100000.00000852213
99999.99994505325
100000.00025101386
99999.99899163363
100000.00378967707
99999.9863154514
100000.04814886696
99999.83354282987
100000.56862770562
99998.07237723768
100006.44789151197
99982.37679475482
99873.27972177327
109579.01240001024
209969.5983720558
467347.0714521974
759823.8201716584
929969.2631085127
985935.6929878902
997751.2397075545
997395.5541705311
992416.1399396139
983822.3534267497
971171.9520978781
953503.640954499
929302.8584742541
896459.2093874632
851460.9452613118
790721.7973167268
706019.5304976713
599151.3812676292
100000.0
99999.99999999988
99999.99999999987
99999.99999999981
99999.99999999993
99999.99999999967
100000.00000000012
99999.99999999926
100000.00000000036
99999.9999999989
99999.9999999988
100000.00000001107
99999.99999994009
100000.00000024834
99999.99999905733
100000.00000337594
99999.99998832722
100000.00003936446
99999.99986961768
100000.00042597804
99999.99862300161
100000.00441355753
99999.98595117936
100000.04446264626
99999.85996567235
100000.43913936257
99998.63009332206
100004.17162771791
99990.27431621483
99931.56132984941
102917.72636523834
163099.6810321943
373865.3319229912
670529.5845281654
879902.6451679191
961162.6920856242
980362.2837633597
980673.6454766546
974577.5861323304
964347.4186164031
949816.9513659488
930135.057109083
903969.3388510183
869573.3759274301
824302.8501791899
765795.2889214096
689368.8154136775
597593.1780799297
100000.0
100000.0
99999.99999999988
100000.0
99999.99999999983
99999.99999999962
99999.9999999996
100000.00000000013
99999.99999999843
100000.0000000035
99999.9999999871
100000.00000003926
99999.99999987417
100000.00000039159
99999.99999878585
100000.00000372973
99999.99998862133
100000.00003445608
99999.99989641474
100000.00030901516
99999.99908585189
100000.00267854014
99999.99224006254
100000.02216844857
99999.93780661788
100000.17019376707
99999.5521430549
100001.0665407736
99998.93751738805
99972.08248978572
100473.83799169815
130815.89041152765
287746.65771391825
569794.3813591151
814852.4562401009
929388.7038107561
961104.3953646123
963854.6150741094
957255.9914537593
945777.6655047444
929816.1158041983
908736.7252641069
881451.8238637408
846601.7414400242
802306.4983161844
747103.8964848013
678526.8102988243
598969.065633391
100000.0
100000.0
100000.0
100000.0
99999.99999999971
99999.99999999991