# vtk DataFile Version 2.0
JuliaCFD
ASCII
DATASET UNSTRUCTURED_GRID

POINTS 32898 float
0.0 0.0 -0.05
0.0125 0.0 -0.05
0.025 0.0 -0.05
0.0375 0.0 -0.05
0.05 0.0 -0.05
0.0625 0.0 -0.05
0.075 0.0 -0.05
0.0875 0.0 -0.05
0.1 0.0 -0.05
0.1125 0.0 -0.05
0.125 0.0 -0.05
0.1375 0.0 -0.05
0.15 0.0 -0.05
0.1625 0.0 -0.05
0.175 0.0 -0.05
0.1875 0.0 -0.05
0.2 0.0 -0.05
0.2125 0.0 -0.05
0.225 0.0 -0.05
0.2375 0.0 -0.05
0.25 0.0 -0.05
0.2625 0.0 -0.05
0.275 0.0 -0.05
0.2875 0.0 -0.05
0.3 0.0 -0.05
0.3125 0.0 -0.05
0.325 0.0 -0.05
0.3375 0.0 -0.05
0.35 0.0 -0.05
0.3625 0.0 -0.05
0.375 0.0 -0.05
0.3875 0.0 -0.05
0.4 0.0 -0.05
0.4125 0.0 -0.05
0.425 0.0 -0.05
0.4375 0.0 -0.05
0.45 0.0 -0.05
0.4625 0.0 -0.05
0.475 0.0 -0.05
0.4875 0.0 -0.05
0.5 0.0 -0.05
0.5125 0.0 -0.05
0.525 0.0 -0.05
0.5375 0.0 -0.05
0.55 0.0 -0.05
0.5625 0.0 -0.05
0.575 0.0 -0.05
0.5875 0.0 -0.05
0.6 0.0 -0.05
0.0 0.0125 -0.05
0.0125 0.0125 -0.05
0.025 0.0125 -0.05
0.0375 0.0125 -0.05
0.05 0.0125 -0.05
0.0625 0.0125 -0.05
0.075 0.0125 -0.05
0.0875 0.0125 -0.05
0.1 0.0125 -0.05
0.1125 0.0125 -0.05
0.125 0.0125 -0.05
0.1375 0.0125 -0.05
0.15 0.0125 -0.05
0.1625 0.0125 -0.05
0.175 0.0125 -0.05
0.1875 0.0125 -0.05
0.2 0.0125 -0.05
0.2125 0.0125 -0.05
0.225 0.0125 -0.05
0.2375 0.0125 -0.05
0.25 0.0125 -0.05
0.2625 0.0125 -0.05
0.275 0.0125 -0.05
0.2875 0.0125 -0.05
0.3 0.0125 -0.05
0.3125 0.0125 -0.05
0.325 0.0125 -0.05
0.3375 0.0125 -0.05
0.35 0.0125 -0.05
0.3625 0.0125 -0.05
0.375 0.0125 -0.05
0.3875 0.0125 -0.05
0.4 0.0125 -0.05
0.4125 0.0125 -0.05
0.425 0.0125 -0.05
0.4375 0.0125 -0.05
0.45 0.0125 -0.05
0.4625 0.0125 -0.05
0.475 0.0125 -0.05
0.4875 0.0125 -0.05
0.5 0.0125 -0.05
0.5125 0.0125 -0.05
0.525 0.0125 -0.05
0.5375 0.0125 -0.05
0.55 0.0125 -0.05
0.5625 0.0125 -0.05
0.575 0.0125 -0.05
0.5875 0.0125 -0.05
0.6 0.0125 -0.05
0.0 0.025 -0.05
0.0125 0.025 -0.05
0.025 0.025 -0.05
0.0375 0.025 -0.05
0.05 0.025 -0.05
0.0625 0.025 -0.05
0.075 0.025 -0.05
0.0875 0.025 -0.05
0.1 0.025 -0.05
0.1125 0.025 -0.05
0.125 0.025 -0.05
0.1375 0.025 -0.05
0.15 0.025 -0.05
0.1625 0.025 -0.05
0.175 0.025 -0.05
0.1875 0.025 -0.05
0.2 0.025 -0.05
0.2125 0.025 -0.05
0.225 0.025 -0.05
0.2375 0.025 -0.05
0.25 0.025 -0.05
0.2625 0.025 -0.05
0.275 0.025 -0.05
0.2875 0.025 -0.05
0.3 0.025 -0.05
0.3125 0.025 -0.05
0.325 0.025 -0.05
0.3375 0.025 -0.05
0.35 0.025 -0.05
0.3625 0.025 -0.05
0.375 0.025 -0.05
0.3875 0.025 -0.05
0.4 0.025 -0.05
0.4125 0.025 -0.05
0.425 0.025 -0.05
0.4375 0.025 -0.05
0.45 0.025 -0.05
0.4625 0.025 -0.05
0.475 0.025 -0.05
0.4875 0.025 -0.05
0.5 0.025 -0.05
0.5125 0.025 -0.05
0.525 0.025 -0.05
0.5375 0.025 -0.05
0.55 0.025 -0.05
0.5625 0.025 -0.05
0.575 0.025 -0.05
0.5875 0.025 -0.05
0.6 0.025 -0.05
0.0 0.0375 -0.05
0.0125 0.0375 -0.05
0.025 0.0375 -0.05
0.0375 0.0375 -0.05
0.05 0.0375 -0.05
0.0625 0.0375 -0.05
0.075 0.0375 -0.05
0.0875 0.0375 -0.05
0.1 0.0375 -0.05
0.1125 0.0375 -0.05
0.125 0.0375 -0.05
0.1375 0.0375 -0.05
0.15 0.0375 -0.05
0.1625 0.0375 -0.05
0.175 0.0375 -0.05
0.1875 0.0375 -0.05
0.2 0.0375 -0.05
0.2125 0.0375 -0.05
0.225 0.0375 -0.05
0.2375 0.0375 -0.05
0.25 0.0375 -0.05
0.2625 0.0375 -0.05
0.275 0.0375 -0.05
0.2875 0.0375 -0.05
0.3 0.0375 -0.05
0.3125 0.0375 -0.05
0.325 0.0375 -0.05
0.3375 0.0375 -0.05
0.35 0.0375 -0.05
0.3625 0.0375 -0.05
0.375 0.0375 -0.05
0.3875 0.0375 -0.05
0.4 0.0375 -0.05
0.4125 0.0375 -0.05
0.425 0.0375 -0.05
0.4375 0.0375 -0.05
0.45 0.0375 -0.05
0.4625 0.0375 -0.05
0.475 0.0375 -0.05
0.4875 0.0375 -0.05
0.5 0.0375 -0.05
0.5125 0.0375 -0.05
0.525 0.0375 -0.05
0.5375 0.0375 -0.05
0.55 0.0375 -0.05
0.5625 0.0375 -0.05
0.575 0.0375 -0.05
0.5875 0.0375 -0.05
0.6 0.0375 -0.05
0.0 0.05 -0.05
0.0125 0.05 -0.05
0.025 0.05 -0.05
0.0375 0.05 -0.05
0.05 0.05 -0.05
0.0625 0.05 -0.05
0.075 0.05 -0.05
0.0875 0.05 -0.05
0.1 0.05 -0.05
0.1125 0.05 -0.05
0.125 0.05 -0.05
0.1375 0.05 -0.05
0.15 0.05 -0.05
0.1625 0.05 -0.05
0.175 0.05 -0.05
0.1875 0.05 -0.05
0.2 0.05 -0.05
0.2125 0.05 -0.05
0.225 0.05 -0.05
0.2375 0.05 -0.05
0.25 0.05 -0.05
0.2625 0.05 -0.05
0.275 0.05 -0.05
0.2875 0.05 -0.05
0.3 0.05 -0.05
0.3125 0.05 -0.05
0.325 0.05 -0.05
0.3375 0.05 -0.05
0.35 0.05 -0.05
0.3625 0.05 -0.05
0.375 0.05 -0.05
0.3875 0.05 -0.05
0.4 0.05 -0.05
0.4125 0.05 -0.05
0.425 0.05 -0.05
0.4375 0.05 -0.05
0.45 0.05 -0.05
0.4625 0.05 -0.05
0.475 0.05 -0.05
0.4875 0.05 -0.05
0.5 0.05 -0.05
0.5125 0.05 -0.05
0.525 0.05 -0.05
0.5375 0.05 -0.05
0.55 0.05 -0.05
0.5625 0.05 -0.05
0.575 0.05 -0.05
0.5875 0.05 -0.05
0.6 0.05 -0.05
0.0 0.0625 -0.05
0.0125 0.0625 -0.05
0.025 0.0625 -0.05
0.0375 0.0625 -0.05
0.05 0.0625 -0.05
0.0625 0.0625 -0.05
0.075 0.0625 -0.05
0.0875 0.0625 -0.05
0.1 0.0625 -0.05
0.1125 0.0625 -0.05
0.125 0.0625 -0.05
0.1375 0.0625 -0.05
0.15 0.0625 -0.05
0.1625 0.0625 -0.05
0.175 0.0625 -0.05
0.1875 0.0625 -0.05
0.2 0.0625 -0.05
0.2125 0.0625 -0.05
0.225 0.0625 -0.05
0.2375 0.0625 -0.05
0.25 0.0625 -0.05
0.2625 0.0625 -0.05
0.275 0.0625 -0.05
0.2875 0.0625 -0.05
0.3 0.0625 -0.05
0.3125 0.0625 -0.05
0.325 0.0625 -0.05
0.3375 0.0625 -0.05
0.35 0.0625 -0.05
0.3625 0.0625 -0.05
0.375 0.0625 -0.05
0.3875 0.0625 -0.05
0.4 0.0625 -0.05
0.4125 0.0625 -0.05
0.425 0.0625 -0.05
0.4375 0.0625 -0.05
0.45 0.0625 -0.05
0.4625 0.0625 -0.05
0.475 0.0625 -0.05
0.4875 0.0625 -0.05
0.5 0.0625 -0.05
0.5125 0.0625 -0.05
0.525 0.0625 -0.05
0.5375 0.0625 -0.05
0.55 0.0625 -0.05
0.5625 0.0625 -0.05
0.575 0.0625 -0.05
0.5875 0.0625 -0.05
0.6 0.0625 -0.05
0.0 0.075 -0.05
0.0125 0.075 -0.05
0.025 0.075 -0.05
0.0375 0.075 -0.05
0.05 0.075 -0.05
0.0625 0.075 -0.05
0.075 0.075 -0.05
0.0875 0.075 -0.05
0.1 0.075 -0.05
0.1125 0.075 -0.05
0.125 0.075 -0.05
0.1375 0.075 -0.05
0.15 0.075 -0.05
0.1625 0.075 -0.05
0.175 0.075 -0.05
0.1875 0.075 -0.05
0.2 0.075 -0.05
0.2125 0.075 -0.05
0.225 0.075 -0.05
0.2375 0.075 -0.05
0.25 0.075 -0.05
0.2625 0.075 -0.05
0.275 0.075 -0.05
0.2875 0.075 -0.05
0.3 0.075 -0.05
0.3125 0.075 -0.05
0.325 0.075 -0.05
0.3375 0.075 -0.05
0.35 0.075 -0.05
0.3625 0.075 -0.05
0.375 0.075 -0.05
0.3875 0.075 -0.05
0.4 0.075 -0.05
0.4125 0.075 -0.05
0.425 0.075 -0.05
0.4375 0.075 -0.05
0.45 0.075 -0.05
0.4625 0.075 -0.05
0.475 0.075 -0.05
0.4875 0.075 -0.05
0.5 0.075 -0.05
0.5125 0.075 -0.05
0.525 0.075 -0.05
0.5375 0.075 -0.05
0.55 0.075 -0.05
0.5625 0.075 -0.05
0.575 0.075 -0.05
0.5875 0.075 -0.05
0.6 0.075 -0.05
0.0 0.0875 -0.05
0.0125 0.0875 -0.05
0.025 0.0875 -0.05
0.0375 0.0875 -0.05
0.05 0.0875 -0.05
0.0625 0.0875 -0.05
0.075 0.0875 -0.05
0.0875 0.0875 -0.05
0.1 0.0875 -0.05
0.1125 0.0875 -0.05
0.125 0.0875 -0.05
0.1375 0.0875 -0.05
0.15 0.0875 -0.05
0.1625 0.0875 -0.05
0.175 0.0875 -0.05
0.1875 0.0875 -0.05
0.2 0.0875 -0.05
0.2125 0.0875 -0.05
0.225 0.0875 -0.05
0.2375 0.0875 -0.05
0.25 0.0875 -0.05
0.2625 0.0875 -0.05
0.275 0.0875 -0.05
0.2875 0.0875 -0.05
0.3 0.0875 -0.05
0.3125 0.0875 -0.05
0.325 0.0875 -0.05
0.3375 0.0875 -0.05
0.35 0.0875 -0.05
0.3625 0.0875 -0.05
0.375 0.0875 -0.05
0.3875 0.0875 -0.05
0.4 0.0875 -0.05
0.4125 0.0875 -0.05
0.425 0.0875 -0.05
0.4375 0.0875 -0.05
0.45 0.0875 -0.05
0.4625 0.0875 -0.05
0.475 0.0875 -0.05
0.4875 0.0875 -0.05
0.5 0.0875 -0.05
0.5125 0.0875 -0.05
0.525 0.0875 -0.05
0.5375 0.0875 -0.05
0.55 0.0875 -0.05
0.5625 0.0875 -0.05
0.575 0.0875 -0.05
0.5875 0.0875 -0.05
0.6 0.0875 -0.05
0.0 0.1 -0.05
0.0125 0.1 -0.05
0.025 0.1 -0.05
0.0375 0.1 -0.05
0.05 0.1 -0.05
0.0625 0.1 -0.05
0.075 0.1 -0.05
0.0875 0.1 -0.05
0.1 0.1 -0.05
0.1125 0.1 -0.05
0.125 0.1 -0.05
0.1375 0.1 -0.05
0.15 0.1 -0.05
0.1625 0.1 -0.05
0.175 0.1 -0.05
0.1875 0.1 -0.05
0.2 0.1 -0.05
0.2125 0.1 -0.05
0.225 0.1 -0.05
0.2375 0.1 -0.05
0.25 0.1 -0.05
0.2625 0.1 -0.05
0.275 0.1 -0.05
0.2875 0.1 -0.05
0.3 0.1 -0.05
0.3125 0.1 -0.05
0.325 0.1 -0.05
0.3375 0.1 -0.05
0.35 0.1 -0.05
0.3625 0.1 -0.05
0.375 0.1 -0.05
0.3875 0.1 -0.05
0.4 0.1 -0.05
0.4125 0.1 -0.05
0.425 0.1 -0.05
0.4375 0.1 -0.05
0.45 0.1 -0.05
0.4625 0.1 -0.05
0.475 0.1 -0.05
0.4875 0.1 -0.05
0.5 0.1 -0.05
0.5125 0.1 -0.05
0.525 0.1 -0.05
0.5375 0.1 -0.05
0.55 0.1 -0.05
0.5625 0.1 -0.05
0.575 0.1 -0.05
0.5875 0.1 -0.05
0.6 0.1 -0.05
0.0 0.1125 -0.05
0.0125 0.1125 -0.05
0.025 0.1125 -0.05
0.0375 0.1125 -0.05
0.05 0.1125 -0.05
0.0625 0.1125 -0.05
0.075 0.1125 -0.05
0.0875 0.1125 -0.05
0.1 0.1125 -0.05
0.1125 0.1125 -0.05
0.125 0.1125 -0.05
0.1375 0.1125 -0.05
0.15 0.1125 -0.05
0.1625 0.1125 -0.05
0.175 0.1125 -0.05
0.1875 0.1125 -0.05
0.2 0.1125 -0.05
0.2125 0.1125 -0.05
0.225 0.1125 -0.05
0.2375 0.1125 -0.05
0.25 0.1125 -0.05
0.2625 0.1125 -0.05
0.275 0.1125 -0.05
0.2875 0.1125 -0.05
0.3 0.1125 -0.05
0.3125 0.1125 -0.05
0.325 0.1125 -0.05
0.3375 0.1125 -0.05
0.35 0.1125 -0.05
0.3625 0.1125 -0.05
0.375 0.1125 -0.05
0.3875 0.1125 -0.05
0.4 0.1125 -0.05
0.4125 0.1125 -0.05
0.425 0.1125 -0.05
0.4375 0.1125 -0.05
0.45 0.1125 -0.05
0.4625 0.1125 -0.05
0.475 0.1125 -0.05
0.4875 0.1125 -0.05
0.5 0.1125 -0.05
0.5125 0.1125 -0.05
0.525 0.1125 -0.05
0.5375 0.1125 -0.05
0.55 0.1125 -0.05
0.5625 0.1125 -0.05
0.575 0.1125 -0.05
0.5875 0.1125 -0.05
0.6 0.1125 -0.05
0.0 0.125 -0.05
0.0125 0.125 -0.05
0.025 0.125 -0.05
0.0375 0.125 -0.05
0.05 0.125 -0.05
0.0625 0.125 -0.05
0.075 0.125 -0.05
0.0875 0.125 -0.05
0.1 0.125 -0.05
0.1125 0.125 -0.05
0.125 0.125 -0.05
0.1375 0.125 -0.05
0.15 0.125 -0.05
0.1625 0.125 -0.05
0.175 0.125 -0.05
0.1875 0.125 -0.05
0.2 0.125 -0.05
0.2125 0.125 -0.05
0.225 0.125 -0.05
0.2375 0.125 -0.05
0.25 0.125 -0.05
0.2625 0.125 -0.05
0.275 0.125 -0.05
0.2875 0.125 -0.05
0.3 0.125 -0.05
0.3125 0.125 -0.05
0.325 0.125 -0.05
0.3375 0.125 -0.05
0.35 0.125 -0.05
0.3625 0.125 -0.05
0.375 0.125 -0.05
0.3875 0.125 -0.05
0.4 0.125 -0.05
0.4125 0.125 -0.05
0.425 0.125 -0.05
0.4375 0.125 -0.05
0.45 0.125 -0.05
0.4625 0.125 -0.05
0.475 0.125 -0.05
0.4875 0.125 -0.05
0.5 0.125 -0.05
0.5125 0.125 -0.05
0.525 0.125 -0.05
0.5375 0.125 -0.05
0.55 0.125 -0.05
0.5625 0.125 -0.05
0.575 0.125 -0.05
0.5875 0.125 -0.05
0.6 0.125 -0.05
0.0 0.1375 -0.05
0.0125 0.1375 -0.05
0.025 0.1375 -0.05
0.0375 0.1375 -0.05
0.05 0.1375 -0.05
0.0625 0.1375 -0.05
0.075 0.1375 -0.05
0.0875 0.1375 -0.05
[...]
CELL_DATA 16128
SCALARS P float 1
LOOKUP_TABLE default
100000.00000005969
99999.9999998367
100000.00000044265
99999.99999879558
100000.00000327184
99999.9999911059
100000.00002416712
99999.99993433306
100000.00017839676
99999.99951541063
100000.00131610116
99999.99642617432
100000.00970282948
99999.97366230444
100000.07147613022
99999.80607533426
100000.52598005056
99998.57399081242
100003.86318328626
99989.56403671464
100027.63957188724
99939.61086588011
99826.14433887767
120749.0558316426
265164.6525072851
559965.2357462711
850517.1484770074
996570.4893699865
1.0383810927134998e6
1.0536230403147626e6
1.065429414719775e6
1.0766323475032463e6
1.0874080734493637e6
1.0977432341776397e6
1.1076243835835743e6
1.1170399092742312e6
1.1259751788069417e6
1.134410876297229e6
1.1423194432364653e6
1.1496718227860557e6
1.1564170836751107e6
1.1625439446210964e6
1.1679035179398942e6
1.1727386421890294e6
1.1761261871622833e6
1.1806056717854976e6
1.1784361468259268e6
1.192405730930477e6
100000.00000005883
99999.9999998388
100000.00000043689
99999.99999881076
100000.00000323137
99999.99999121402
100000.00002387968
99999.99993509577
100000.00017637707
99999.99952075294
100000.00130198536
99999.99646346201
100000.00960428425
99999.97392306104
100000.07078516648
99999.80790670555
100000.52114541741
99998.58657190311
100003.83163193082
99989.63632112433
100027.50824877768
99939.71961567579
99824.03048646904
120243.4406183732
263714.65075237694
559442.2186092176
853520.1724572959
1.0029285812295483e6
1.046353908798152e6
1.0623027197825212e6
1.0744984252055178e6
1.0859620672666556e6
1.0969494752165056e6
1.1074849782378795e6
1.1175718190631284e6
1.1272042957231e6
1.1363681478062756e6
1.1450413922028204e6
1.1531918604972113e6
1.1607842734558736e6
1.1677601380927083e6
1.1740988622781755e6
1.1796417579153746e6
1.1846192985943002e6
1.1880986833902542e6
1.1926182579072784e6
1.1903750650443889e6
1.2045496962319165e6
100000.00000005697
99999.999999844
100000.00000042317
99999.99999884765
100000.00000313306
99999.99999147613
100000.00002318295
99999.99993694304
100000.00017149618
99999.99953360006
100000.00126832692
99999.99655116146
100000.00937731689
99999.97450547715
100000.06930695925
99999.81160447025
100000.51207458046
99998.60823176074
100003.78180551517
99989.74498170128
100027.28466383481
99940.22540787671
99817.72280931975
119046.2089171829
259025.45438732865
552194.4701185531
847148.9207079845
998759.9832342728
1.0430431735977159e6
1.059007864050778e6
1.0710675630806785e6
1.082374243118751e6
1.0931940809071537e6
1.1035502982582361e6
1.113445787454014e6
1.1228757194258498e6
1.1318275420885505e6
1.1402815449478587e6
1.148208438150502e6
1.1555761925343145e6
1.162330901921553e6
1.168455634097521e6
1.1738014292759877e6
1.1785958048858508e6
1.1819387460824945e6
1.1863195942886337e6
1.1840083464902302e6
1.1983739317573076e6
100000.00000005394
99999.99999985193
100000.00000040197
99999.99999890494
100000.0000029793
99999.99999188782
100000.00002208172
99999.9999398817
100000.0001636757
99999.99955434998
100000.00121345815
99999.9966956809
100000.00899839305
99999.97549379176
100000.06674482372
99999.81820056486
100000.49522586231
99998.65090003073
100003.6747083862
99990.011087366
100026.63119846823
99941.74300902878
99811.8158111881
117232.63008543
251698.97432235387
541112.5515644442
838463.5807996803
994736.0237347661
1.0411074934950825e6
1.0574899296375362e6
1.0696147154973666e6
1.0809220053707303e6
1.0917210795150457e6
1.1020467923256352e6
1.11190876244441e6
1.1213070076896027e6
1.1302327272894154e6
1.138669197745883e6
1.1465896317839352e6
1.153963610222105e6
1.1607388717234053e6
1.166896769899814e6
1.1722914733258684e6
1.1771349569867307e6
1.1805500930383357e6
1.1849604126032453e6
1.182670606117465e6
1.1974099169840375e6
100000.00000005018
99999.99999986253
100000.00000037297
99999.99999898321
100000.00000276767
99999.99999245924
100000.00002054233
99999.99994402422
100000.00015254703
99999.99958419306
100000.0011335928
99999.99690893966
100000.00843033988
99999.97700283404
100000.06274777242
99999.82875417877
100000.46745496323
99998.72371126326
100003.48455931904
99990.50459484839
100025.37296408835
99944.50515842978
99811.88852412193
114946.21880385607
241963.1065395411
526052.6668001745
826441.9412080015
989018.9575237781
1.0382011956228258e6
1.0550240853846357e6
1.0671020642455665e6
1.0782950031808098e6
1.0889636287342848e6
1.0991497591195165e6
1.108866146588359e6
1.1181155462335243e6
1.1268917819959281e6
1.1351806442180134e6
1.1429579042754213e6
1.1501952292234853e6
1.1568431785928626e6
1.1628828196093505e6
1.1681750444615437e6
1.1729181900547536e6
1.1762695239435504e6
1.180586200229396e6
1.1782271841121365e6
1.19337637861063e6
100000.0000000451
99999.99999987593
100000.00000033648
99999.9999990828
100000.0000024976
99999.99999319365
100000.00001854789
99999.99994943597
100000.00013787551
99999.9996239328
100000.0010260634
99999.99719957472
100000.00764575099
99999.97911810032
100000.05705315745
99999.84406086405
100000.42638301093
99998.8337017914
100003.19070627396
99991.285936256
100023.33696485701
99948.88246250746
99821.69998480137
112366.99661482633
230132.2346571211
507107.42330084054
810940.4879564872
981631.5178600177
1.0346395567691607e6
1.05210429034383e6
1.0641372510007047e6
1.0751929093048142e6
1.0857066988492585e6
1.0957293350890013e6
1.1052770718122714e6
1.1143559326007762e6
1.1229630414783738e6
1.131087439764819e6
1.1387082093573823e6
1.145799756667816e6
1.1523160264731476e6
1.158237864513403e6
1.163433074853922e6
1.1680848466062332e6
1.1713854206103839e6
1.175624139803681e6
1.1731954762284358e6
1.1888754419166797e6
100000.00000003944
99999.99999989186
100000.00000029312
99999.99999920123
100000.00000217331
99999.99999408018
100000.00001612422
99999.99995606055
100000.00011977364
99999.99967338138
100000.00089103275
99999.99756816357
100000.00664007207
99999.98186067295
100000.04957822978
99999.86442037976
100000.37097253864
99998.98436646363
100002.78156323663
99992.39322491002
100020.4000548997
99955.24136079651
99841.91706805277
109692.05441497882
216596.0199114691
484414.31492928485
791689.2950532241
972264.091173163
1.0302616533871691e6
1.0486186392520715e6
1.0606003010189913e6
1.0714750086353656e6
1.0817853090091276e6
1.0915933287282162e6
1.100918425824242e6
1.109769540889291e6
1.1181469605179257e6
1.1260430242943189e6
1.1334403538269997e6
1.140316513532779e6
1.1466295267856715e6
1.1523609983089874e6
1.1573872893464009e6
1.161878472528211e6
1.1650655158849468e6
1.1691757628949021e6
1.1666247305017116e6
1.1829447847276642e6
100000.00000003303
99999.99999990968
100000.00000024453
99999.99999933472
100000.00000180672
99999.99999508807
100000.00001335402
99999.9999636772
100000.00009883005
99999.99973097992
100000.00073260546
99999.9980039754
100000.00544110332
99999.98515938905
100000.04050223026
99999.88939145781
100000.30227380169
99999.17333618597
100002.26198900443
99993.81851800454
100016.5640286307
99963.7337757484
99869.72710189498
107117.26796377923
201818.6041258339
458188.7991205831
768417.806241825
960585.0880271464
1.0249519800649984e6
1.0445547597921827e6
1.0565044491522668e6
1.067162650913262e6
1.0772254497452213e6
1.0867711807760517e6
1.09582226728707e6
1.1043902704362017e6
1.1124784884946668e6
1.1200825880559958e6
1.1271889669794864e6
1.1337788570407205e6
1.1398151944855077e6
1.145281695886342e6
1.1500650629009826e6
1.1543251740441103e6
1.1573344609654124e6
1.1612664276337198e6
1.1585351016197512e6
1.1756391550232074e6
100000.0000000262
99999.99999992842
100000.00000019318
99999.99999947645
100000.00000141627
99999.99999616588
100000.00001037997
99999.99997188995
100000.00007614192
99999.99979368724
100000.00055920678
99999.99848369822
100000.00411324365
99999.9888367116
100000.0303133337
99999.9176360389
100000.22394006205
99999.39068350833
100001.65880062827
99995.4901168708
100012.01164095761
99974.10296944983
99899.73875863671
104816.87053381678
186333.2107879019
428745.0737749578
740859.8940791346
946187.6955086179
1.0185478889731803e6
1.0398791202550066e6
1.0518423795469708e6
1.062250255898687e6
1.0720183951166524e6
1.0812490688546326e6
1.0899678182493076e6
1.0981881644328285e6
1.1059157700061384e6
1.113149086151356e6
1.1198778986684978e6
1.1260869781952125e6
1.1317443456941233e6
1.1368366603365685e6
1.1412621921274362e6
1.1451739452774753e6
1.1478890347496907e6
1.1515402063432836e6
1.1485188519415935e6
1.1665696511556925e6
100000.00000001988
99999.99999994687
100000.00000014219
99999.99999961807
100000.00000102559
99999.99999724612
100000.0000073916
99999.99998016229
100000.00005322718
99999.99985721128
100000.00038297345
99999.99897300752
100000.00275357132
99999.99261811138
100000.0197876861
99999.94696072002
100000.1421663388
99999.61892421852
100001.0212838994
99997.26954835886
100007.12153485225
99985.5664845482
99926.0132139421
102922.6423423004
170729.65125230595
396522.3163461534
708785.6579888372
928588.60058077
1.010835601905393e6
1.0345512759986155e6
1.0466130004480775e6
1.0567415300191503e6
1.0661661028617509e6
1.0750251705019644e6
1.0833477409117855e6
1.0911482667709517e6
1.0984335806708757e6
1.1052037239488552e6
1.1114507772315594e6
1.117162272940146e6
1.1223110466481782e6
1.1268876280230305e6
1.1308038585914501e6
1.134211548470131e6
1.1364784164603325e6
1.139714916616292e6
1.1362637678972764e6
1.1554826355758898e6
100000.00000001345
99999.99999996444
100000.00000009441
99999.99999975001
100000.00000066088
99999.99999825461
100000.00000460168
99999.99998788824
100000.0000318157
99999.99991660505
100000.00021806393
99999.99943134362
100000.00147837363
99999.99616991506
100000.00988344279
99999.97461220686
100000.06486927146
99999.8352827063
100000.41497645248
99998.96842747818
100002.42571544232
99996.85038931685
99944.45603226805
101506.42198887061
155630.67798080004
362108.6638321239
672043.3740385345
907227.0992182408
1.0015289351064451e6
1.0285134251379862e6
1.0408162194813336e6
1.050644618358623e6
1.0596753808348698e6
1.0681023803134784e6
1.075959021873646e6
1.083259160269929e6
1.0900087491952488e6
1.096207019699062e6
1.1018455663983088e6
1.1069115199220104e6
1.1113788341719096e6
1.1152379184534189e6
1.118409380217675e6
1.1210411956956296e6
1.1225493024746748e6
1.1250436300421022e6
1.1208051918866786e6
1.1413682619861919e6
100000.00000000799
99999.9999999796
100000.00000005298
99999.99999986425
100000.00000034642
99999.99999912185
100000.0000022087
99999.99999449664
100000.00001355034
99999.99996713722
100000.00007812642
99999.99981927872
100000.00040172349
99999.99916159292
100000.00155974527
99999.99780312325
100000.00016102447
100000.01611655075
99999.9088639122
100000.38538366112
99998.50598446638
100006.42079568749
99954.45660805264
100570.87242476562
141654.09871637597
326257.93064021866
630613.1390359625
881476.1891151727
990246.7500986739
1.0216797737489728e6
1.0344513663535188e6
1.043973442074933e6
1.0525605373101374e6
1.0604921265457724e6
1.0678081676912962e6
1.0745199322006465e6
1.0806295647293155e6
1.086131923902652e6
1.0910139788470704e6
1.0952579949905693e6
1.098834798043302e6
1.101732015989484e6
1.1038789588329832e6
1.1054297269088277e6
1.105863535299693e6
1.1073307611094e6
1.1020195043373692e6
1.1243497289911667e6
100000.00000000364
99999.9999999916
100000.00000002011
99999.99999995432
100000.00000010032
99999.99999979611
100000.0000003616
99999.99999955957
99999.99999966564
100000.00000523879
99999.99997350042
100000.0001067949
99999.99961096463
100000.0013384234
99999.99556116598
100000.01435188706
99999.95444888783
100000.14256211578
99999.55861241042
100001.35582404857
99995.84788811153
100012.88531153293
99958.87608093114
100053.2182497699
129359.1306805346
289892.8448919266
584669.8254815248
850670.3051449357
976488.560384751
1.0139210351847151e6
1.0275134251112741e6
1.0367475653849838e6
1.0448443671604813e6
1.0522160453335696e6
1.0589135737591581e6
1.0649431864956203e6
1.0702989580962039e6
1.0749655283927305e6
1.0789171665621412e6
1.082119855343745e6
1.0845245283146598e6
1.0860903107913597e6
1.0867184977652838e6
1.0865105051741933e6
1.0849258919091406e6
1.0841155317084794e6
1.0761318763594704e6
1.09965638358557e6
100000.00000000051
100000.00000000028
99999.99999999696
100000.00000001707
99999.99999993079
100000.00000025313
99999.99999913013
100000.00000287741
99999.99999073433
100000.00002926069
99999.99990894741
100000.0002800939
99999.99914623227
100000.0025832035
99999.99223137936
100000.02324638741
99999.93072692622
100000.20572081047
99999.39080201024
100001.79991476152
99994.69451687441
100015.44720592443
99962.27989700265
99844.05968701887
119179.65194613948
254087.81935275445
534650.207720436
814155.8737929335
959611.6996262294
1.0050430971696139e6
1.0199870785019808e6
1.0289915661782708e6
1.0365591418924528e6
1.0433079890859426e6
1.0493089032989743e6
1.0545607402600741e6
1.059044512108669e6
1.0627277929434404e6
1.0655632237662734e6
1.0674894762298327e6
1.0684268290371187e6
1.0682980383100975e6
1.0669740966829315e6
1.0645466171981147e6
1.060538390457686e6
1.0572257645094583e6
1.0466211388783873e6
1.0729753927276821e6
99999.99999999849
100000.00000000553
99999.99999998328
100000.00000005332
99999.99999983615
100000.00000049907
99999.9999984938
100000.00000451312
99999.99998656317
100000.00003979553
99999.99988266564
100000.00034462767
99999.99899110173
100000.00294520723
99999.99142316007
100000.02492478314
99999.92769623999
100000.20942825497
99999.39415736945
100001.75056589386
99994.95493936444
100014.2388453977
99968.47371342068
99817.95828634864
111354.79009831711
220024.2296942471
481315.1405768679
771369.8303340822
938815.6003976446
994758.1662561453
1.0118371263917497e6
1.0207331872999234e6
1.0277469173749592e6
1.0338151846200913e6
1.0390449084111659e6
1.0434258591203813e6
1.04691981636897e6
1.0494674755924966e6
1.0509840265511717e6
1.0513551386973467e6
1.0504205377509305e6
1.0479826808795215e6
1.0437159486431584e6
1.0373675780324482e6
1.027910643415658e6
1.0167388741374261e6
994429.9553632668
1.0123876313793961e6
99999.99999999753
100000.00000000779
99999.9999999775
100000.00000006668
99999.99999980479
100000.00000056821
99999.99999835176
100000.00000476395
99999.99998627376
100000.0000394361
99999.9998869915
100000.00032306723
99999.99907845282
100000.00262331824
99999.99254668472
100000.02113781634
99999.94015573592
100000.16914876961
99999.52267057437
100001.3445976595
99996.22727677971
100010.31080481836
99978.55686658008
99866.42577042671
105877.02872529103
188912.03507827528
425793.78006455046
721948.4045626869
913142.1495597104
982647.235220547
1.0029934368428164e6
1.011999607676796e6
1.0184590994205145e6
1.0237991005010529e6
1.0281918437617283e6
1.0316188910178968e6
1.0340176205667771e6
1.0352936656150696e6
1.0353126918189087e6
1.0338922673118032e6
1.0307807774950817e6
1.0256566504685618e6
1.0180517236820908e6
1.0075831486184136e6
993256.1282901723
976787.0391237675
949068.7651661746
972109.7826791613
99999.99999999734
100000.00000000774
99999.99999997753
100000.00000006371
99999.99999981851
100000.00000051322
99999.99999855127
100000.00000407753
99999.99998855527
100000.00003202801
99999.99991062643
100000.00024865169
99999.99931034482
100000.00190658569
99999.99474748898
100000.01441567457
99999.96060013334
100000.10718463124
99999.70995593302
100000.77982422315
99997.92503864066
100005.30207584589
99990.59596403611
99920.46214253051
102483.28883328168
161872.98660548078
369593.93063495297
665863.5478090991
881505.741178913
968114.7578078294
993328.1116076844
1.0028106966403419e6
1.0087544482469014e6
1.0133344977517936e6
1.0168384834358774e6
1.0192452374054135e6
1.020463840542434e6
1.0203556405388308e6
1.0187212701567861e6
1.0152796085405739e6
1.0096144378925263e6
1.0011125410376379e6
988743.10466289
970927.3556066554
943978.3181997157
903005.0425680022
824534.3195295024
696331.5779777691
99999.99999999764
100000.0000000066
99999.99999998145
100000.00000005112
99999.99999985776
100000.00000039124
99999.99999892524
100000.00000293762
99999.99999200387
100000.00002165449
99999.99994167987
100000.00015607064
99999.99958540374
100000.00109179645
99999.9971550141
100000.00731715244
99999.98149228095
100000.04578755342
99999.89016556027
100000.25148921084
99999.47010576591
100000.86842563118
100001.1557533113
99953.89064979694
100707.92873512939
139785.05807562484
314560.5613516971
603575.6297432565
842770.9755330674
950340.7931133972
982622.4893120006
993168.0565883495
998695.3676990789
1.0025074229109645e6
1.0050907073417064e6
1.0064355883786842e6
1.0064236092451124e6
1.004869097213363e6
1.0015081214814452e6
995957.4766579167
987644.1872154664
975704.2191047157
958703.9598131429
934422.1942473685
898321.64062509
844479.9960457012
753475.856477148
617229.6017808872
99999.99999999806
100000.00000000473
99999.99999998676
100000.00000003535
99999.99999990479
100000.00000025317
99999.99999933023
100000.00000175535
99999.99999544364
100000.00001168104
99999.99997050989
100000.00007297409
99999.99982424917
100000.00040712187
99999.99911252644
100000.00173527132
99999.9973666929
100000.000765928
100000.01748350666
99999.89262357225
100000.47620691673
99998.11198088243
100007.41585739839
99969.31567223213
99995.01419017158
123104.31686118922
262765.1888664126
536177.2472161961
795895.8228266431
928242.4125584606
970521.6924858232
983037.9665501589
988341.5711501726
991410.9655391253
993066.2858177279
993338.0682381841
992085.7621572845
989087.0336044194
984021.3383550972
976429.0331625603
965632.5030588061
950632.2693837777
929847.6387307866
900958.5672995631
859732.6257168474
801245.6369382112
712460.530900592
591897.3000752408
99999.99999999885
100000.00000000292
99999.99999999207
100000.00000002077
99999.9999999468
100000.00000013357
99999.9999996691
100000.00000079926
99999.99999813076
100000.00000416028
99999.99999146306
100000.00001488627
99999.99998440318
99999.99996829104
100000.00030637406
99999.99851467011
100000.00596677812
99999.97808883079
100000.07632120774
99999.74324726722
100000.84308026613
99997.27728899858
100008.6224753508
99978.19157499328
99835.86274324423
111716.14896634448
216315.4111788155
465487.3065059746
740148.3807558973
900463.7274004694
956474.872899693
972325.433600421
977740.2391049699
980138.9573067351
980887.4163987336
980105.413133532
977646.6274739457
973263.0845393366
966598.4972842744
957150.7406725344
944200.6169482603
926725.4186747726
903195.1245004399
871506.4998797205
828192.8227513948
769706.4250082305
688071.6193047782
584871.1433047961
99999.99999999946
100000.00000000156
99999.999999996
100000.0000000096
99999.99999997758
100000.00000004935
99999.99999989866
100000.00000017819
99999.99999979709
99999.9999997325
100000.00000308953
99999.9999848002
100000.00006079633
99999.99977918684
100000.00075787149
99999.997494949
100000.00805768547
99999.97461947576
100000.07859993057
99999.7600512952
100000.7233230718
99997.84757108767
100006.18447787981
99987.48940816142
99874.39016431122
104902.28958026982
177086.08987450236
394047.60283918737
675386.9607377892
865423.3428181718
939662.0882873178
960835.4653413119
966911.3220720409
968778.2101440553
968673.0262119875
966885.2305495633
963289.8731546934
957627.6073222763
949528.4413802151
938482.0308328607
923781.427266085
904461.8120014382
879159.1099832079
846118.0281943465
802709.7931798927
746570.6834123237
673133.2863392752
584772.6917408139
99999.9999999997
100000.00000000081
99999.99999999865
100000.00000000268
99999.99999999588
100000.00000000166
100000.00000002043
99999.99999987207
100000.0000005464
99999.999997963
100000.00000704742
99999.99997673916
100000.0000742403
99999.9997690697
100000.00070332311
99999.99789687233
100000.00618387006
99999.9821120776
100000.05088519448
99999.85784904762
100000.3888430734
99998.96663296732
100002.5432924157
99996.93804244963
99933.8758533111
101492.84973209458
146387.13746558124
324980.5224428346
602368.3095798828
821459.4044947583
918917.978601125
948217.5836162602
955825.8375793224
957398.8840573577
956530.6586871214
953812.0858611184
949176.2098609267
942372.0000389933
933035.232335247