# vtk DataFile Version 2.0
JuliaCFD
ASCII
DATASET UNSTRUCTURED_GRID

POINTS 32898 float
0.0 0.0 -0.05
0.0125 0.0 -0.05
0.025 0.0 -0.05
0.0375 0.0 -0.05
0.05 0.0 -0.05
0.0625 0.0 -0.05
0.075 0.0 -0.05
0.0875 0.0 -0.05
0.1 0.0 -0.05
0.1125 0.0 -0.05
0.125 0.0 -0.05
0.1375 0.0 -0.05
0.15 0.0 -0.05
0.1625 0.0 -0.05
0.175 0.0 -0.05
0.1875 0.0 -0.05
0.2 0.0 -0.05
0.2125 0.0 -0.05
0.225 0.0 -0.05
0.2375 0.0 -0.05
0.25 0.0 -0.05
0.2625 0.0 -0.05
0.275 0.0 -0.05
0.2875 0.0 -0.05
0.3 0.0 -0.05
0.3125 0.0 -0.05
0.325 0.0 -0.05
0.3375 0.0 -0.05
0.35 0.0 -0.05
0.3625 0.0 -0.05
0.375 0.0 -0.05
0.3875 0.0 -0.05
0.4 0.0 -0.05
0.4125 0.0 -0.05
0.425 0.0 -0.05
0.4375 0.0 -0.05
0.45 0.0 -0.05
0.4625 0.0 -0.05
0.475 0.0 -0.05
0.4875 0.0 -0.05
0.5 0.0 -0.05
0.5125 0.0 -0.05
0.525 0.0 -0.05
0.5375 0.0 -0.05
0.55 0.0 -0.05
0.5625 0.0 -0.05
0.575 0.0 -0.05
0.5875 0.0 -0.05
0.6 0.0 -0.05
0.0 0.0125 -0.05
0.0125 0.0125 -0.05
0.025 0.0125 -0.05
0.0375 0.0125 -0.05
0.05 0.0125 -0.05
0.0625 0.0125 -0.05
0.075 0.0125 -0.05
0.0875 0.0125 -0.05
0.1 0.0125 -0.05
0.1125 0.0125 -0.05
0.125 0.0125 -0.05
0.1375 0.0125 -0.05
0.15 0.0125 -0.05
0.1625 0.0125 -0.05
0.175 0.0125 -0.05
0.1875 0.0125 -0.05
0.2 0.0125 -0.05
0.2125 0.0125 -0.05
0.225 0.0125 -0.05
0.2375 0.0125 -0.05
0.25 0.0125 -0.05
0.2625 0.0125 -0.05
0.275 0.0125 -0.05
0.2875 0.0125 -0.05
0.3 0.0125 -0.05
0.3125 0.0125 -0.05
0.325 0.0125 -0.05
0.3375 0.0125 -0.05
0.35 0.0125 -0.05
0.3625 0.0125 -0.05
0.375 0.0125 -0.05
0.3875 0.0125 -0.05
0.4 0.0125 -0.05
0.4125 0.0125 -0.05
0.425 0.0125 -0.05
0.4375 0.0125 -0.05
0.45 0.0125 -0.05
0.4625 0.0125 -0.05
0.475 0.0125 -0.05
0.4875 0.0125 -0.05
0.5 0.0125 -0.05
0.5125 0.0125 -0.05
0.525 0.0125 -0.05
0.5375 0.0125 -0.05
0.55 0.0125 -0.05
0.5625 0.0125 -0.05
0.575 0.0125 -0.05
0.5875 0.0125 -0.05
0.6 0.0125 -0.05
0.0 0.025 -0.05
0.0125 0.025 -0.05
0.025 0.025 -0.05
0.0375 0.025 -0.05
0.05 0.025 -0.05
0.0625 0.025 -0.05
0.075 0.025 -0.05
0.0875 0.025 -0.05
0.1 0.025 -0.05
0.1125 0.025 -0.05
0.125 0.025 -0.05
0.1375 0.025 -0.05
0.15 0.025 -0.05
0.1625 0.025 -0.05
0.175 0.025 -0.05
0.1875 0.025 -0.05
0.2 0.025 -0.05
0.2125 0.025 -0.05
0.225 0.025 -0.05
0.2375 0.025 -0.05
0.25 0.025 -0.05
0.2625 0.025 -0.05
0.275 0.025 -0.05
0.2875 0.025 -0.05
0.3 0.025 -0.05
0.3125 0.025 -0.05
0.325 0.025 -0.05
0.3375 0.025 -0.05
0.35 0.025 -0.05
0.3625 0.025 -0.05
0.375 0.025 -0.05
0.3875 0.025 -0.05
0.4 0.025 -0.05
0.4125 0.025 -0.05
0.425 0.025 -0.05
0.4375 0.025 -0.05
0.45 0.025 -0.05
0.4625 0.025 -0.05
0.475 0.025 -0.05
0.4875 0.025 -0.05
0.5 0.025 -0.05
0.5125 0.025 -0.05
0.525 0.025 -0.05
0.5375 0.025 -0.05
0.55 0.025 -0.05
0.5625 0.025 -0.05
0.575 0.025 -0.05
0.5875 0.025 -0.05
0.6 0.025 -0.05
0.0 0.0375 -0.05
0.0125 0.0375 -0.05
0.025 0.0375 -0.05
0.0375 0.0375 -0.05
0.05 0.0375 -0.05
0.0625 0.0375 -0.05
0.075 0.0375 -0.05
0.0875 0.0375 -0.05
0.1 0.0375 -0.05
0.1125 0.0375 -0.05
0.125 0.0375 -0.05
0.1375 0.0375 -0.05
0.15 0.0375 -0.05
0.1625 0.0375 -0.05
0.175 0.0375 -0.05
0.1875 0.0375 -0.05
0.2 0.0375 -0.05
0.2125 0.0375 -0.05
0.225 0.0375 -0.05
0.2375 0.0375 -0.05
0.25 0.0375 -0.05
0.2625 0.0375 -0.05
0.275 0.0375 -0.05
0.2875 0.0375 -0.05
0.3 0.0375 -0.05
0.3125 0.0375 -0.05
0.325 0.0375 -0.05
0.3375 0.0375 -0.05
0.35 0.0375 -0.05
0.3625 0.0375 -0.05
0.375 0.0375 -0.05
0.3875 0.0375 -0.05
0.4 0.0375 -0.05
0.4125 0.0375 -0.05
0.425 0.0375 -0.05
0.4375 0.0375 -0.05
0.45 0.0375 -0.05
0.4625 0.0375 -0.05
0.475 0.0375 -0.05
0.4875 0.0375 -0.05
0.5 0.0375 -0.05
0.5125 0.0375 -0.05
0.525 0.0375 -0.05
0.5375 0.0375 -0.05
0.55 0.0375 -0.05
0.5625 0.0375 -0.05
0.575 0.0375 -0.05
0.5875 0.0375 -0.05
0.6 0.0375 -0.05
0.0 0.05 -0.05
0.0125 0.05 -0.05
0.025 0.05 -0.05
0.0375 0.05 -0.05
0.05 0.05 -0.05
0.0625 0.05 -0.05
0.075 0.05 -0.05
0.0875 0.05 -0.05
0.1 0.05 -0.05
0.1125 0.05 -0.05
0.125 0.05 -0.05
0.1375 0.05 -0.05
0.15 0.05 -0.05
0.1625 0.05 -0.05
0.175 0.05 -0.05
0.1875 0.05 -0.05
0.2 0.05 -0.05
0.2125 0.05 -0.05
0.225 0.05 -0.05
0.2375 0.05 -0.05
0.25 0.05 -0.05
0.2625 0.05 -0.05
0.275 0.05 -0.05
0.2875 0.05 -0.05
0.3 0.05 -0.05
0.3125 0.05 -0.05
0.325 0.05 -0.05
0.3375 0.05 -0.05
0.35 0.05 -0.05
0.3625 0.05 -0.05
0.375 0.05 -0.05
0.3875 0.05 -0.05
0.4 0.05 -0.05
0.4125 0.05 -0.05
0.425 0.05 -0.05
0.4375 0.05 -0.05
0.45 0.05 -0.05
0.4625 0.05 -0.05
0.475 0.05 -0.05
0.4875 0.05 -0.05
0.5 0.05 -0.05
0.5125 0.05 -0.05
0.525 0.05 -0.05
0.5375 0.05 -0.05
0.55 0.05 -0.05
0.5625 0.05 -0.05
0.575 0.05 -0.05
0.5875 0.05 -0.05
0.6 0.05 -0.05
0.0 0.0625 -0.05
0.0125 0.0625 -0.05
0.025 0.0625 -0.05
0.0375 0.0625 -0.05
0.05 0.0625 -0.05
0.0625 0.0625 -0.05
0.075 0.0625 -0.05
0.0875 0.0625 -0.05
0.1 0.0625 -0.05
0.1125 0.0625 -0.05
0.125 0.0625 -0.05
0.1375 0.0625 -0.05
0.15 0.0625 -0.05
0.1625 0.0625 -0.05
0.175 0.0625 -0.05
0.1875 0.0625 -0.05
0.2 0.0625 -0.05
0.2125 0.0625 -0.05
0.225 0.0625 -0.05
0.2375 0.0625 -0.05
0.25 0.0625 -0.05
0.2625 0.0625 -0.05
0.275 0.0625 -0.05
0.2875 0.0625 -0.05
0.3 0.0625 -0.05
0.3125 0.0625 -0.05
0.325 0.0625 -0.05
0.3375 0.0625 -0.05
0.35 0.0625 -0.05
0.3625 0.0625 -0.05
0.375 0.0625 -0.05
0.3875 0.0625 -0.05
0.4 0.0625 -0.05
0.4125 0.0625 -0.05
0.425 0.0625 -0.05
0.4375 0.0625 -0.05
0.45 0.0625 -0.05
0.4625 0.0625 -0.05
0.475 0.0625 -0.05
0.4875 0.0625 -0.05
0.5 0.0625 -0.05
0.5125 0.0625 -0.05
0.525 0.0625 -0.05
0.5375 0.0625 -0.05
0.55 0.0625 -0.05
0.5625 0.0625 -0.05
0.575 0.0625 -0.05
0.5875 0.0625 -0.05
0.6 0.0625 -0.05
0.0 0.075 -0.05
0.0125 0.075 -0.05
0.025 0.075 -0.05
0.0375 0.075 -0.05
0.05 0.075 -0.05
0.0625 0.075 -0.05
0.075 0.075 -0.05
0.0875 0.075 -0.05
0.1 0.075 -0.05
0.1125 0.075 -0.05
0.125 0.075 -0.05
0.1375 0.075 -0.05
0.15 0.075 -0.05
0.1625 0.075 -0.05
0.175 0.075 -0.05
0.1875 0.075 -0.05
0.2 0.075 -0.05
0.2125 0.075 -0.05
0.225 0.075 -0.05
0.2375 0.075 -0.05
0.25 0.075 -0.05
0.2625 0.075 -0.05
0.275 0.075 -0.05
0.2875 0.075 -0.05
0.3 0.075 -0.05
0.3125 0.075 -0.05
0.325 0.075 -0.05
0.3375 0.075 -0.05
0.35 0.075 -0.05
0.3625 0.075 -0.05
0.375 0.075 -0.05
0.3875 0.075 -0.05
0.4 0.075 -0.05
0.4125 0.075 -0.05
0.425 0.075 -0.05
0.4375 0.075 -0.05
0.45 0.075 -0.05
0.4625 0.075 -0.05
0.475 0.075 -0.05
0.4875 0.075 -0.05
0.5 0.075 -0.05
0.5125 0.075 -0.05
0.525 0.075 -0.05
0.5375 0.075 -0.05
0.55 0.075 -0.05
0.5625 0.075 -0.05
0.575 0.075 -0.05
0.5875 0.075 -0.05
0.6 0.075 -0.05
0.0 0.0875 -0.05
0.0125 0.0875 -0.05
0.025 0.0875 -0.05
0.0375 0.0875 -0.05
0.05 0.0875 -0.05
0.0625 0.0875 -0.05
0.075 0.0875 -0.05
0.0875 0.0875 -0.05
0.1 0.0875 -0.05
0.1125 0.0875 -0.05
0.125 0.0875 -0.05
0.1375 0.0875 -0.05
0.15 0.0875 -0.05
0.1625 0.0875 -0.05
0.175 0.0875 -0.05
0.1875 0.0875 -0.05
0.2 0.0875 -0.05
0.2125 0.0875 -0.05
0.225 0.0875 -0.05
0.2375 0.0875 -0.05
0.25 0.0875 -0.05
0.2625 0.0875 -0.05
0.275 0.0875 -0.05
0.2875 0.0875 -0.05
0.3 0.0875 -0.05
0.3125 0.0875 -0.05
0.325 0.0875 -0.05
0.3375 0.0875 -0.05
0.35 0.0875 -0.05
0.3625 0.0875 -0.05
0.375 0.0875 -0.05
0.3875 0.0875 -0.05
0.4 0.0875 -0.05
0.4125 0.0875 -0.05
0.425 0.0875 -0.05
0.4375 0.0875 -0.05
0.45 0.0875 -0.05
0.4625 0.0875 -0.05
0.475 0.0875 -0.05
0.4875 0.0875 -0.05
0.5 0.0875 -0.05
0.5125 0.0875 -0.05
0.525 0.0875 -0.05
0.5375 0.0875 -0.05
0.55 0.0875 -0.05
0.5625 0.0875 -0.05
0.575 0.0875 -0.05
0.5875 0.0875 -0.05
0.6 0.0875 -0.05
0.0 0.1 -0.05
0.0125 0.1 -0.05
0.025 0.1 -0.05
0.0375 0.1 -0.05
0.05 0.1 -0.05
0.0625 0.1 -0.05
0.075 0.1 -0.05
0.0875 0.1 -0.05
0.1 0.1 -0.05
0.1125 0.1 -0.05
0.125 0.1 -0.05
0.1375 0.1 -0.05
0.15 0.1 -0.05
0.1625 0.1 -0.05
0.175 0.1 -0.05
0.1875 0.1 -0.05
0.2 0.1 -0.05
0.2125 0.1 -0.05
0.225 0.1 -0.05
0.2375 0.1 -0.05
0.25 0.1 -0.05
0.2625 0.1 -0.05
0.275 0.1 -0.05
0.2875 0.1 -0.05
0.3 0.1 -0.05
0.3125 0.1 -0.05
0.325 0.1 -0.05
0.3375 0.1 -0.05
0.35 0.1 -0.05
0.3625 0.1 -0.05
0.375 0.1 -0.05
0.3875 0.1 -0.05
0.4 0.1 -0.05
0.4125 0.1 -0.05
0.425 0.1 -0.05
0.4375 0.1 -0.05
0.45 0.1 -0.05
0.4625 0.1 -0.05
0.475 0.1 -0.05
0.4875 0.1 -0.05
0.5 0.1 -0.05
0.5125 0.1 -0.05
0.525 0.1 -0.05
0.5375 0.1 -0.05
0.55 0.1 -0.05
0.5625 0.1 -0.05
0.575 0.1 -0.05
0.5875 0.1 -0.05
0.6 0.1 -0.05
0.0 0.1125 -0.05
0.0125 0.1125 -0.05
0.025 0.1125 -0.05
0.0375 0.1125 -0.05
0.05 0.1125 -0.05
0.0625 0.1125 -0.05
0.075 0.1125 -0.05
0.0875 0.1125 -0.05
0.1 0.1125 -0.05
0.1125 0.1125 -0.05
0.125 0.1125 -0.05
0.1375 0.1125 -0.05
0.15 0.1125 -0.05
0.1625 0.1125 -0.05
0.175 0.1125 -0.05
0.1875 0.1125 -0.05
0.2 0.1125 -0.05
0.2125 0.1125 -0.05
0.225 0.1125 -0.05
0.2375 0.1125 -0.05
0.25 0.1125 -0.05
0.2625 0.1125 -0.05
0.275 0.1125 -0.05
0.2875 0.1125 -0.05
0.3 0.1125 -0.05
0.3125 0.1125 -0.05
0.325 0.1125 -0.05
0.3375 0.1125 -0.05
0.35 0.1125 -0.05
0.3625 0.1125 -0.05
0.375 0.1125 -0.05
0.3875 0.1125 -0.05
0.4 0.1125 -0.05
0.4125 0.1125 -0.05
0.425 0.1125 -0.05
0.4375 0.1125 -0.05
0.45 0.1125 -0.05
0.4625 0.1125 -0.05
0.475 0.1125 -0.05
0.4875 0.1125 -0.05
0.5 0.1125 -0.05
0.5125 0.1125 -0.05
0.525 0.1125 -0.05
0.5375 0.1125 -0.05
0.55 0.1125 -0.05
0.5625 0.1125 -0.05
0.575 0.1125 -0.05
0.5875 0.1125 -0.05
0.6 0.1125 -0.05
0.0 0.125 -0.05
0.0125 0.125 -0.05
0.025 0.125 -0.05
0.0375 0.125 -0.05
0.05 0.125 -0.05
0.0625 0.125 -0.05
0.075 0.125 -0.05
0.0875 0.125 -0.05
0.1 0.125 -0.05
0.1125 0.125 -0.05
0.125 0.125 -0.05
0.1375 0.125 -0.05
0.15 0.125 -0.05
0.1625 0.125 -0.05
0.175 0.125 -0.05
0.1875 0.125 -0.05
0.2 0.125 -0.05
0.2125 0.125 -0.05
0.225 0.125 -0.05
0.2375 0.125 -0.05
0.25 0.125 -0.05
0.2625 0.125 -0.05
0.275 0.125 -0.05
0.2875 0.125 -0.05
0.3 0.125 -0.05
0.3125 0.125 -0.05
0.325 0.125 -0.05
0.3375 0.125 -0.05
0.35 0.125 -0.05
0.3625 0.125 -0.05
0.375 0.125 -0.05
0.3875 0.125 -0.05
0.4 0.125 -0.05
0.4125 0.125 -0.05
0.425 0.125 -0.05
0.4375 0.125 -0.05
0.45 0.125 -0.05
0.4625 0.125 -0.05
0.475 0.125 -0.05
0.4875 0.125 -0.05
0.5 0.125 -0.05
0.5125 0.125 -0.05
0.525 0.125 -0.05
0.5375 0.125 -0.05
0.55 0.125 -0.05
0.5625 0.125 -0.05
0.575 0.125 -0.05
0.5875 0.125 -0.05
0.6 0.125 -0.05
0.0 0.1375 -0.05
0.0125 0.1375 -0.05
0.025 0.1375 -0.05
0.0375 0.1375 -0.05
0.05 0.1375 -0.05
0.0625 0.1375 -0.05
0.075 0.1375 -0.05
0.0875 0.1375 -0.05
[...]
CELL_DATA 16128
SCALARS P float 1
LOOKUP_TABLE default
100000.0
100000.0
100000.0
100000.0
100000.0
100000.0
100000.0
100000.0
99999.99999999988
99999.99999999977
99999.99999999967
99999.99999999975
99999.99999999962
99999.99999999971
99999.99999999936
100000.00000000026
99999.99999999702
100000.00000000602
99999.99999997973
100000.0000000566
99999.99999984523
100000.0000004057
99999.99999898075
100000.00000240379
99999.99999472708
100000.00001034794
99999.9999824149
100000.0000304362
99999.99988476012
100000.00076795582
99999.99561986593
100000.01829195645
99999.95315274641
99999.97452502989
100001.09380873112
99992.85013799056
100028.7672969562
99931.4597104778
100836.16911161893
180460.30400511136
573319.1655162032
1.2040510963419594e6
1.6327003790969555e6
1.6431693699419508e6
1.5790799883024136e6
1.6189966631655248e6
1.6351190247323073e6
1.6177545740110893e6
100000.0
99999.99999999988
100000.0
100000.0
100000.0
100000.0
100000.0
99999.99999999988
99999.99999999988
99999.99999999988
99999.99999999971
99999.99999999971
99999.99999999959
99999.99999999981
99999.99999999929
100000.00000000032
99999.99999999719
100000.00000000618
99999.99999997989
100000.00000005639
99999.99999984523
100000.00000040614
99999.99999898061
100000.00000240371
99999.99999472527
100000.00001034598
99999.99998247785
100000.00002994669
99999.99988734043
100000.00075863591
99999.99563253175
100000.01842168154
99999.95176027935
99999.98279641254
100001.0598829289
99992.92986210725
100028.89559844005
99929.3886970967
100784.36626142003
178675.13743280715
568137.9555866689
1.1978359755204185e6
1.629347784579011e6
1.642640189065119e6
1.5787419771296557e6
1.6182708531358717e6
1.6344653947647007e6
1.6174912028442142e6
99999.99999999994
99999.99999999988
100000.0
100000.0
100000.0
100000.0
99999.99999999988
99999.99999999988
99999.99999999988
99999.99999999988
99999.99999999977
99999.99999999971
99999.99999999953
99999.99999999967
99999.99999999949
100000.00000000032
99999.99999999744
100000.00000000613
99999.99999998011
100000.00000005559
99999.99999984547
100000.00000040565
99999.99999898071
100000.00000240645
99999.99999472145
100000.00001034445
99999.9999826003
100000.00002890856
99999.99989305764
100000.0007367486
99999.9956713079
100000.01864896457
99999.94891095109
100000.00068070568
100000.98239025938
99993.13634981094
100029.00324792492
99925.31232204557
100677.35538301505
174642.130736425
554961.4274353168
1.17767753094956e6
1.6106434755737495e6
1.6288693457760075e6
1.5651773481929505e6
1.6029731034619652e6
1.6188545245191783e6
1.6026470305691934e6
100000.0
100000.0
100000.0
100000.0
99999.99999999988
99999.99999999988
99999.99999999988
99999.99999999988
99999.99999999988
99999.99999999988
99999.99999999988
99999.99999999988
99999.99999999953
99999.99999999977
99999.99999999929
100000.00000000044
99999.99999999726
100000.00000000642
99999.99999998003
100000.00000005515
99999.99999984556
100000.00000040527
99999.99999898081
100000.0000024095
99999.99999471393
100000.00001034884
99999.99998277749
100000.00002725294
99999.9999026131
100000.00069811157
99999.99575460731
100000.01891598193
99999.94468102235
100000.02873617632
100000.85548667361
99993.50518064773
100028.91445010643
99919.80510274909
100532.29744023459
168561.12145315917
535030.4761535464
1.148226787430087e6
1.5852841709347477e6
1.6119991582357797e6
1.548746289012917e6
1.5841850985450374e6
1.5997932314200036e6
1.5847712543355145e6
99999.99999999994
99999.99999999988
99999.99999999988
99999.99999999988
99999.99999999988
99999.99999999988
99999.99999999988
99999.99999999988
99999.99999999988
99999.99999999988
99999.99999999988
99999.99999999977
99999.99999999975
99999.99999999975
99999.99999999939
100000.00000000029
99999.9999999972
100000.00000000639
99999.99999997998
100000.0000000551
99999.99999984572
100000.00000040492
99999.99999898038
100000.00000241333
99999.99999469967
100000.00001036869
99999.99998298634
100000.00002494213
99999.9999168909
100000.00063623571
99999.9959158926
100000.01909349955
99999.93938858307
100000.06717318088
100000.67071771352
99994.09998678617
100028.29731902617
99913.87878393989
100373.64417759138
160559.17072367814
508039.43153047253
1.108424734269736e6
1.551755976998108e6
1.5908111142753188e6
1.528369393527465e6
1.5606165161656325e6
1.5758924831073675e6
1.5625351678359457e6
100000.0
99999.99999999988
99999.99999999988
99999.99999999988
99999.99999999988
99999.99999999988
99999.99999999988
99999.99999999988
99999.99999999988
99999.99999999988
99999.99999999988
99999.99999999983
99999.99999999971
99999.9999999997
99999.99999999943
100000.0000000002
99999.99999999726
100000.00000000636
99999.99999998008
100000.00000005495
99999.99999984588
100000.00000040473
99999.99999898043
100000.00000241859
99999.99999467669
100000.00001041898
99999.99998317113
100000.00002206187
99999.99993649843
100000.00054397412
99999.99620090936
100000.01896434472
99999.93379931324
100000.1145182519
100000.42334075541
99994.99143043204
100026.68459776635
99909.37297130431
100231.1923990613
150951.03531426372
474041.0906051934
1.0580812409278273e6
1.5104363467913142e6
1.5666306376860186e6
1.5057678893912463e6
1.534059201932372e6
1.5490053537132503e6
1.537900958636855e6
100000.0
100000.0
100000.0
99999.99999999988
99999.99999999988
99999.99999999977
99999.99999999971
99999.99999999971
99999.99999999971
99999.99999999971
99999.99999999971
99999.99999999971
99999.99999999967
99999.99999999977
99999.99999999926
100000.00000000016
99999.99999999742
100000.00000000614
99999.99999998038
100000.00000005485
99999.99999984635
100000.00000040434
99999.99999898071
100000.0000024246
99999.99999464223
100000.00001052085
99999.99998323356
100000.00001893168
99999.99996113818
100000.00041615214
99999.99666046778
100000.01822224006
99999.92930183184
100000.16619496647
100000.1200808092
99996.22460976329
100023.57345899055
99908.94973024631
100131.9791385817
140300.25324295572
433445.3897511869
996943.5127309802
1.4609749234082503e6
1.5399024471152872e6
1.481957940374964e6
1.5055100748548964e6
1.5201036509252917e6
1.5119630216608143e6
100000.0
99999.99999999988
99999.99999999988
99999.99999999988
99999.99999999977
99999.99999999971
99999.99999999971
99999.99999999971
99999.99999999971
99999.99999999971
99999.99999999971
99999.99999999971
99999.99999999971
99999.99999999974
99999.99999999933
100000.00000000006
99999.9999999976
100000.0000000059
99999.99999998049
100000.00000005454
99999.99999984736
100000.00000040303
99999.99999898221
100000.00000243048
99999.99999459597
100000.0000106954
99999.99998302874
100000.00001620015
99999.99998884443
100000.00025378318
99999.99733284938
100000.01652193851
99999.92788959315
100000.2135565021
99999.78746153288
99997.7720673227
100018.62715384807
99915.60396310352
100087.40754176566
129427.97872669355
387192.32520186825
924928.6357253345
1.402605343537336e6
1.5106490919375592e6
1.4578151220589774e6
1.4759171359540967e6
1.490065993094204e6
1.4857463688610618e6
100000.0
99999.99999999988
100000.0
99999.99999999988
99999.99999999988
99999.99999999988
99999.99999999988
99999.99999999988
99999.99999999977
99999.99999999971
99999.99999999971
99999.99999999971
99999.99999999965
99999.99999999977
99999.99999999932
100000.00000000026
99999.99999999757
100000.00000000586
99999.99999998092
100000.0000000542
99999.99999984854
100000.00000040012
99999.99999898627
100000.00000243273
99999.99999454216
100000.00001095669
99999.99998239362
100000.0000148468
100000.0000153879
100000.00006906898
99999.9982152457
100000.01360461806
99999.93176114504
100000.24439558217
99999.47642514225
99999.48493869008
100011.97113248397
99931.4559379602
100083.71601648025
119325.63664558559
336858.34206541465
842230.5355329126
1.3339863867378975e6
1.4781053638563552e6
1.433750293929051e6
1.445848713800334e6
1.4592848730880194e6
1.4597730869054948e6
100000.0
100000.0
100000.0
99999.99999999988
99999.99999999988
99999.99999999988
99999.99999999988
99999.99999999988
99999.99999999977
99999.99999999975
99999.99999999975
99999.99999999971
99999.99999999962
99999.99999999981
99999.99999999962
100000.0000000003
99999.99999999741
100000.00000000578
99999.999999981
100000.00000005314
99999.99999985054
100000.00000039516
99999.99999899535
100000.00000242605
99999.99999449243
100000.00001129405
99999.99998120613
100000.00001599312
100000.00003442458
99999.99988863188
99999.99923257195
100000.0094876005
99999.94243702503
100000.24604492186
99999.25618147818
100001.07643337415
100004.45632000407
99955.92674676204
100086.6258275712
110963.7675464894
284726.7601814125
749551.9205759676
1.25330505949547e6
1.4406374239397193e6
1.4097839191747752e6
1.415711846388987e6
1.4279648493735301e6
1.4343950902559964e6
100000.0
100000.0
100000.0
100000.0
99999.99999999988
99999.99999999988
99999.99999999988
99999.99999999988
99999.99999999971
99999.99999999977
99999.99999999983
99999.99999999983
99999.99999999974
99999.99999999994
99999.99999999948
100000.00000000028
99999.99999999745
100000.00000000556
99999.99999998142
100000.00000005204
99999.99999985387
100000.00000038712
99999.99999901155
100000.00000240342
99999.99999446867
100000.00001165809
99999.99997948235
100000.00002046583
100000.00003901205
99999.99975089809
100000.00022398839
100000.0046398023
99999.95959007088
100000.21120873229
99999.19164243048
100002.18158612482
99997.64981193864
99984.37923155891
100063.6035711399
105020.42793362867
233772.8782789803
648373.6752326954
1.1583836295563139e6
1.3953613123610518e6
1.3849662957611629e6
1.385081668366452e6
1.3951992279878596e6
1.4086614852600445e6
100000.0
100000.0
100000.0
100000.0
100000.0
99999.99999999988
100000.0
99999.99999999988
99999.99999999988
99999.99999999988
99999.99999999983
99999.99999999983
99999.99999999962
99999.99999999983
99999.99999999945
100000.00000000023
99999.99999999757
100000.0000000054
99999.99999998214
100000.00000005019
99999.99999985886
100000.00000037522
99999.99999903851
100000.00000235475
99999.99999450159
100000.00001195089
99999.99997746536
100000.00002820053
100000.00002461663
99999.9996943357
100000.00097305133
99999.99999677444
99999.98023812618
100000.14435757941
99999.30810115203
100002.51060155824
99993.32942779212
100008.81982890565
100010.34478765765
101623.048395526
187527.28347615647
541417.2884626499
1.0473373247816847e6
1.3384890136332535e6
1.3579537773148457e6
1.3540513251767764e6
1.361090676531563e6
1.38297190117321e6
100000.0
100000.0
100000.0
100000.0
100000.0
100000.0
100000.0
99999.99999999988
99999.99999999988
99999.99999999988
99999.99999999983
99999.99999999971
99999.99999999971
99999.99999999981
99999.99999999942
100000.00000000012
99999.99999999786
100000.00000000499
99999.99999998315
100000.00000004764
99999.99999986558
100000.0000003581
99999.99999907875
100000.00000227115
99999.99999462419
100000.00001204075
99999.99997564183
100000.00003780038
99999.99999254283
99999.99973828295
100000.00129220898
99999.9966807274
99999.99920889897
100000.06400257557
99999.56233439346
100002.03842137945
99992.53903017784
100021.57161275421
99956.05106476639
100259.01706561951
149584.96772994255
432881.20458974835
918829.4744100058
1.264298702038873e6
1.3245981651541146e6
1.319371798815539e6
1.3207002148082722e6
1.3508158147459757e6
100000.0
100000.0
100000.0
100000.0
100000.0
100000.0
100000.0
99999.99999999993
100000.0
99999.99999999988
99999.99999999977
99999.9999999997
99999.99999999953
99999.99999999981
99999.99999999939
99999.99999999996
99999.99999999804
100000.00000000445
99999.99999998436
100000.00000004421
99999.99999987459
100000.00000033557
99999.99999913374
100000.00000214689
99999.9999948627
100000.00001180166
99999.99997461891
100000.00004669241
99999.99995143752
99999.99986634255
100000.00113065695
99999.9954587183
100000.01131290269
99999.99634487685
99999.84868127647
100001.0889961818
99994.76645410272
100020.33333974458
99936.17575461348
100009.90596899204
122707.98332040317
328982.145810509
773978.8982631835
1.1675530622532226e6
1.2819680196506635e6
1.2829040811612667e6
1.2790151589590786e6
1.3204989608712513e6
100000.00000000009
100000.0
100000.00000000003
100000.00000000003
99999.99999999994
99999.99999999994
99999.99999999994
99999.99999999994
99999.99999999981
99999.99999999981
99999.99999999988
99999.99999999988
99999.99999999971
99999.99999999988
99999.99999999933
99999.99999999996
99999.99999999818
100000.00000000412
99999.9999999857
100000.0000000401
99999.99999988555
100000.00000030697
99999.99999920432
100000.00000198098
99999.99999522402
100000.00001116657
99999.99997487546
100000.00005209495
99999.99991462605
100000.00002696372
100000.00063066414
99999.99624774714
100000.01428802121
99999.9613048148
100000.05261535593
100000.18517362849
99998.0665412336
100010.4356486994
99956.75363480483
100048.41519279378
107435.34756584364
237428.0184457498
616116.9368327379
1.0399275599688132e6
1.2176962370443302e6
1.2298129452206744e6
1.2103671036437112e6
1.2475180182672206e6
100000.0
100000.0
100000.0
100000.0
100000.0
99999.99999999988
99999.99999999988
99999.99999999988
99999.99999999977
99999.99999999977
99999.99999999971
99999.99999999977
99999.99999999971
99999.99999999977
99999.99999999945
99999.99999999991
99999.99999999831
100000.00000000357
99999.9999999874
100000.00000003519
99999.99999989846
100000.00000027328
99999.99999928821
100000.00000177881
99999.99999569247
100000.0000101649
99999.99997651657
100000.00005239893
99999.99989363323
100000.00015791667
100000.00006437354
99999.99810584661
100000.01026907994
99999.9603341099
100000.12146136722
99999.71538416648
100000.36382729333
100000.9745332351
99990.0443207572
100025.14556312126
101345.9237487493
167073.3541359026
455472.6607047964
880357.2394581139
1.1305734094962329e6
1.1748952498128351e6
1.1539934505379405e6
1.2101651353493414e6
100000.0
100000.0
100000.0
100000.0
100000.0
100000.0
100000.0
99999.99999999988
99999.99999999988
99999.99999999988
99999.99999999988
99999.99999999988
99999.99999999965
99999.99999999981
99999.99999999955
99999.9999999999
99999.99999999843
100000.00000000287
99999.99999998917
100000.00000003005
99999.99999991267
100000.00000023608
99999.99999938192
100000.00000155071
99999.99999623439
100000.00000891073
99999.99997921748
100000.00004799977
99999.99989204138
100000.0002209737
99999.99967267721
99999.99984275461
100000.00410932313
99999.977499034
100000.09074591578
99999.69052553413
100000.93986744643
99997.36372761129
100007.1317797337
99979.43462653903
100047.36065601422
123624.09572818797
306516.01510477456
684202.9640478448
991350.3489767517
1.0651527991312623e6
996370.8999456895
856585.2103627912
100000.0
100000.0
100000.0
100000.0
100000.0
100000.0
100000.0
99999.99999999988
99999.99999999988
99999.99999999988
99999.99999999988
99999.99999999988
99999.99999999971
99999.99999999981
99999.99999999965
99999.9999999998
99999.99999999863
100000.0000000023
99999.99999999102
100000.00000002468
99999.99999992744
100000.00000019695
99999.99999948095
100000.00000130893
99999.99999681069
100000.00000754744
99999.99998242168
100000.00004084285
99999.99990475104
100000.00021897936
99999.99953342434
100000.00077811984
99999.99975205435
99999.99418598395
100000.03581729183
99999.84753283187
100000.55553158214
99998.11676283916
100006.28742536962
99979.53514841634
99996.0456868528
105118.85387330505
193006.73589796302
476044.5561396758
809569.5552114259
949876.5961019469
901015.5948908407
758406.9290235823
100000.0
100000.0
100000.0
100000.0
100000.0
100000.0
100000.0
100000.0
100000.0
99999.99999999988
99999.99999999981
99999.99999999981
99999.99999999981
99999.99999999988
99999.99999999968
99999.99999999974
99999.9999999989
100000.00000000182
99999.99999999303
100000.00000001957
99999.99999994217
100000.0000001581
99999.99999957986
100000.000001067
99999.99999738645
100000.00000619315
99999.99998564033
100000.00003306814
99999.9999231215
100000.0001815587
99999.99957168648
100000.00096209186
99999.99812911695
100000.00237671242
100000.00242064768
99999.96787806878
100000.15175648469
99999.4422651181
100001.81258361653
99994.91955532567
99996.12517363972
100561.82792358323
129121.28686587416
294195.1173426942
592808.9996692552
805839.6735621989
820964.4773388979
716629.03581226
100000.00000000009
100000.0
100000.00000000004
100000.0
100000.00000000004
100000.0
100000.0
100000.0
100000.0
100000.0
99999.99999999994
99999.99999999994
99999.99999999983
99999.99999999983
99999.99999999974
100000.0
99999.99999999917
100000.0000000013
99999.99999999446
100000.00000001476
99999.99999995575
100000.00000012206
99999.99999967315
100000.00000083694
99999.99999793436
100000.00000491901
99999.99998860821
100000.00002596148
99999.99994077033
100000.00013753255
99999.99967312117
100000.00078374088
99999.99816750661
100000.00398723275
99999.992412011
100000.01127611201
99999.99150568587
99999.98521182421
100000.04931847048
100000.25404475849
99995.29699077307
100007.80174348611
105819.94443726851
173700.23524628454
378643.7675757901
617894.1537938577
717985.4536660785
677894.0326445199
100000.0
100000.0
100000.0
100000.0
100000.0
100000.0
99999.99999999997
100000.0
100000.0
100000.00000000007
100000.00000000004
99999.99999999994
99999.99999999994
99999.99999999994
99999.99999999987
99999.99999999994
99999.99999999943
100000.00000000086
99999.99999999594
100000.00000001055
99999.99999996723
100000.00000009002
99999.99999975642
100000.00000062928
99999.99999843133
100000.00000376647
99999.99999123887
100000.0000198907
99999.99995535017
100000.0001007458
99999.99976803416
100000.00054744293
99999.99869090845
100000.0031009603
99999.99287833372
100000.01574934795
99999.9656760941
100000.07877827995
99999.79266185472
100000.63910746935
99998.03433520962
99989.9369444165
100746.16633967371
119136.8119065241
218873.0885649371
410850.8691960504
568397.0406466429
607499.2804663706
100000.0
100000.0
100000.0
100000.0
100000.0
100000.0
100000.0
100000.0
100000.0
100000.0
99999.99999999993
99999.99999999981
99999.99999999988
99999.99999999993
99999.99999999971
99999.99999999983
99999.99999999953
100000.00000000051
99999.9999999972
100000.00000000738
99999.99999997692
100000.00000006368
99999.99999982616
100000.00000045267
99999.99999886003
100000.00000276537
99999.99999350928
100000.00001479678
99999.99996696603
100000.00007306377
99999.99983759085
100000.00036719235
99999.99915281984
100000.00197861758
99999.99538538458
100000.01066045492
99999.97541621614
100000.0581291035
99999.85437997573
100000.38900928058
99999.00108216405
99999.53694709639
100047.8711318944
103518.45579340948
136081.47991771877
242471.07641339817
389728.63617247756
487419.2399480666
100000.0
100000.0
100000.0
100000.0
100000.0
100000.0
100000.0
100000.0
100000.0
100000.0
100000.0
100000.0
100000.0
99999.99999999988
99999.99999999975
99999.99999999981
99999.99999999949
100000.00000000013
99999.99999999785
100000.00000000479
99999.99999998437
100000.00000004291
99999.99999988165
100000.00000031077
99999.99999920938
100000.00000193894
99999.99999539861
100000.00001058671
99999.99997626635
100000.00005219362
99999.9998863143
100000.00024790972
99999.9994541234
100000.00121653946
99999.9972679276
100000.00614588031
99999.98614569029
100000.03166738573
99999.92525402548
100000.18344577182
99999.55281111663
100000.7748452574
99994.90361767355
100501.27655025032
108024.12625535243
147765.71564956725
237281.09290090724
339219.5781571979
100000.0
100000.0
100000.0
100000.0
100000.0
100000.0
100000.0
100000.0
100000.0
100000.0
100000.0
100000.0
100000.0
100000.0
99999.99999999988
99999.99999999994
99999.99999999967
99999.9999999999
99999.99999999843
100000.0000000028
99999.99999999002
100000.00000002758
99999.99999992299
100000.00000020348
99999.99999947715
100000.0000012948
99999.99999689322
100000.0000072266
99999.99998364814
100000.00003611647
99999.99992169447
100000.00016781145
99999.99964189633
100000.00076528589
99999.99835840818
100000.00353368871
99999.99235583533
100000.01674416938
99999.96239114381
100000.08713506586
99999.79638895263
100000.4584492176
99997.42824121566
100056.2438551211
101447.97704069263