# vtk DataFile Version 2.0
JuliaCFD
ASCII
DATASET UNSTRUCTURED_GRID

POINTS 32898 float
0.0 0.0 -0.05
0.0125 0.0 -0.05
0.025 0.0 -0.05
0.0375 0.0 -0.05
0.05 0.0 -0.05
0.0625 0.0 -0.05
0.075 0.0 -0.05
0.0875 0.0 -0.05
0.1 0.0 -0.05
0.1125 0.0 -0.05
0.125 0.0 -0.05
0.1375 0.0 -0.05
0.15 0.0 -0.05
0.1625 0.0 -0.05
0.175 0.0 -0.05
0.1875 0.0 -0.05
0.2 0.0 -0.05
0.2125 0.0 -0.05
0.225 0.0 -0.05
0.2375 0.0 -0.05
0.25 0.0 -0.05
0.2625 0.0 -0.05
0.275 0.0 -0.05
0.2875 0.0 -0.05
0.3 0.0 -0.05
0.3125 0.0 -0.05
0.325 0.0 -0.05
0.3375 0.0 -0.05
0.35 0.0 -0.05
0.3625 0.0 -0.05
0.375 0.0 -0.05
0.3875 0.0 -0.05
0.4 0.0 -0.05
0.4125 0.0 -0.05
0.425 0.0 -0.05
0.4375 0.0 -0.05
0.45 0.0 -0.05
0.4625 0.0 -0.05
0.475 0.0 -0.05
0.4875 0.0 -0.05
0.5 0.0 -0.05
0.5125 0.0 -0.05
0.525 0.0 -0.05
0.5375 0.0 -0.05
0.55 0.0 -0.05
0.5625 0.0 -0.05
0.575 0.0 -0.05
0.5875 0.0 -0.05
0.6 0.0 -0.05
0.0 0.0125 -0.05
0.0125 0.0125 -0.05
0.025 0.0125 -0.05
0.0375 0.0125 -0.05
0.05 0.0125 -0.05
0.0625 0.0125 -0.05
0.075 0.0125 -0.05
0.0875 0.0125 -0.05
0.1 0.0125 -0.05
0.1125 0.0125 -0.05
0.125 0.0125 -0.05
0.1375 0.0125 -0.05
0.15 0.0125 -0.05
0.1625 0.0125 -0.05
0.175 0.0125 -0.05
0.1875 0.0125 -0.05
0.2 0.0125 -0.05
0.2125 0.0125 -0.05
0.225 0.0125 -0.05
0.2375 0.0125 -0.05
0.25 0.0125 -0.05
0.2625 0.0125 -0.05
0.275 0.0125 -0.05
0.2875 0.0125 -0.05
0.3 0.0125 -0.05
0.3125 0.0125 -0.05
0.325 0.0125 -0.05
0.3375 0.0125 -0.05
0.35 0.0125 -0.05
0.3625 0.0125 -0.05
0.375 0.0125 -0.05
0.3875 0.0125 -0.05
0.4 0.0125 -0.05
0.4125 0.0125 -0.05
0.425 0.0125 -0.05
0.4375 0.0125 -0.05
0.45 0.0125 -0.05
0.4625 0.0125 -0.05
0.475 0.0125 -0.05
0.4875 0.0125 -0.05
0.5 0.0125 -0.05
0.5125 0.0125 -0.05
0.525 0.0125 -0.05
0.5375 0.0125 -0.05
0.55 0.0125 -0.05
0.5625 0.0125 -0.05
0.575 0.0125 -0.05
0.5875 0.0125 -0.05
0.6 0.0125 -0.05
0.0 0.025 -0.05
0.0125 0.025 -0.05
0.025 0.025 -0.05
0.0375 0.025 -0.05
0.05 0.025 -0.05
0.0625 0.025 -0.05
0.075 0.025 -0.05
0.0875 0.025 -0.05
0.1 0.025 -0.05
0.1125 0.025 -0.05
0.125 0.025 -0.05
0.1375 0.025 -0.05
0.15 0.025 -0.05
0.1625 0.025 -0.05
0.175 0.025 -0.05
0.1875 0.025 -0.05
0.2 0.025 -0.05
0.2125 0.025 -0.05
0.225 0.025 -0.05
0.2375 0.025 -0.05
0.25 0.025 -0.05
0.2625 0.025 -0.05
0.275 0.025 -0.05
0.2875 0.025 -0.05
0.3 0.025 -0.05
0.3125 0.025 -0.05
0.325 0.025 -0.05
0.3375 0.025 -0.05
0.35 0.025 -0.05
0.3625 0.025 -0.05
0.375 0.025 -0.05
0.3875 0.025 -0.05
0.4 0.025 -0.05
0.4125 0.025 -0.05
0.425 0.025 -0.05
0.4375 0.025 -0.05
0.45 0.025 -0.05
0.4625 0.025 -0.05
0.475 0.025 -0.05
0.4875 0.025 -0.05
0.5 0.025 -0.05
0.5125 0.025 -0.05
0.525 0.025 -0.05
0.5375 0.025 -0.05
0.55 0.025 -0.05
0.5625 0.025 -0.05
0.575 0.025 -0.05
0.5875 0.025 -0.05
0.6 0.025 -0.05
0.0 0.0375 -0.05
0.0125 0.0375 -0.05
0.025 0.0375 -0.05
0.0375 0.0375 -0.05
0.05 0.0375 -0.05
0.0625 0.0375 -0.05
0.075 0.0375 -0.05
0.0875 0.0375 -0.05
0.1 0.0375 -0.05
0.1125 0.0375 -0.05
0.125 0.0375 -0.05
0.1375 0.0375 -0.05
0.15 0.0375 -0.05
0.1625 0.0375 -0.05
0.175 0.0375 -0.05
0.1875 0.0375 -0.05
0.2 0.0375 -0.05
0.2125 0.0375 -0.05
0.225 0.0375 -0.05
0.2375 0.0375 -0.05
0.25 0.0375 -0.05
0.2625 0.0375 -0.05
0.275 0.0375 -0.05
0.2875 0.0375 -0.05
0.3 0.0375 -0.05
0.3125 0.0375 -0.05
0.325 0.0375 -0.05
0.3375 0.0375 -0.05
0.35 0.0375 -0.05
0.3625 0.0375 -0.05
0.375 0.0375 -0.05
0.3875 0.0375 -0.05
0.4 0.0375 -0.05
0.4125 0.0375 -0.05
0.425 0.0375 -0.05
0.4375 0.0375 -0.05
0.45 0.0375 -0.05
0.4625 0.0375 -0.05
0.475 0.0375 -0.05
0.4875 0.0375 -0.05
0.5 0.0375 -0.05
0.5125 0.0375 -0.05
0.525 0.0375 -0.05
0.5375 0.0375 -0.05
0.55 0.0375 -0.05
0.5625 0.0375 -0.05
0.575 0.0375 -0.05
0.5875 0.0375 -0.05
0.6 0.0375 -0.05
0.0 0.05 -0.05
0.0125 0.05 -0.05
0.025 0.05 -0.05
0.0375 0.05 -0.05
0.05 0.05 -0.05
0.0625 0.05 -0.05
0.075 0.05 -0.05
0.0875 0.05 -0.05
0.1 0.05 -0.05
0.1125 0.05 -0.05
0.125 0.05 -0.05
0.1375 0.05 -0.05
0.15 0.05 -0.05
0.1625 0.05 -0.05
0.175 0.05 -0.05
0.1875 0.05 -0.05
0.2 0.05 -0.05
0.2125 0.05 -0.05
0.225 0.05 -0.05
0.2375 0.05 -0.05
0.25 0.05 -0.05
0.2625 0.05 -0.05
0.275 0.05 -0.05
0.2875 0.05 -0.05
0.3 0.05 -0.05
0.3125 0.05 -0.05
0.325 0.05 -0.05
0.3375 0.05 -0.05
0.35 0.05 -0.05
0.3625 0.05 -0.05
0.375 0.05 -0.05
0.3875 0.05 -0.05
0.4 0.05 -0.05
0.4125 0.05 -0.05
0.425 0.05 -0.05
0.4375 0.05 -0.05
0.45 0.05 -0.05
0.4625 0.05 -0.05
0.475 0.05 -0.05
0.4875 0.05 -0.05
0.5 0.05 -0.05
0.5125 0.05 -0.05
0.525 0.05 -0.05
0.5375 0.05 -0.05
0.55 0.05 -0.05
0.5625 0.05 -0.05
0.575 0.05 -0.05
0.5875 0.05 -0.05
0.6 0.05 -0.05
0.0 0.0625 -0.05
0.0125 0.0625 -0.05
0.025 0.0625 -0.05
0.0375 0.0625 -0.05
0.05 0.0625 -0.05
0.0625 0.0625 -0.05
0.075 0.0625 -0.05
0.0875 0.0625 -0.05
0.1 0.0625 -0.05
0.1125 0.0625 -0.05
0.125 0.0625 -0.05
0.1375 0.0625 -0.05
0.15 0.0625 -0.05
0.1625 0.0625 -0.05
0.175 0.0625 -0.05
0.1875 0.0625 -0.05
0.2 0.0625 -0.05
0.2125 0.0625 -0.05
0.225 0.0625 -0.05
0.2375 0.0625 -0.05
0.25 0.0625 -0.05
0.2625 0.0625 -0.05
0.275 0.0625 -0.05
0.2875 0.0625 -0.05
0.3 0.0625 -0.05
0.3125 0.0625 -0.05
0.325 0.0625 -0.05
0.3375 0.0625 -0.05
0.35 0.0625 -0.05
0.3625 0.0625 -0.05
0.375 0.0625 -0.05
0.3875 0.0625 -0.05
0.4 0.0625 -0.05
0.4125 0.0625 -0.05
0.425 0.0625 -0.05
0.4375 0.0625 -0.05
0.45 0.0625 -0.05
0.4625 0.0625 -0.05
0.475 0.0625 -0.05
0.4875 0.0625 -0.05
0.5 0.0625 -0.05
0.5125 0.0625 -0.05
0.525 0.0625 -0.05
0.5375 0.0625 -0.05
0.55 0.0625 -0.05
0.5625 0.0625 -0.05
0.575 0.0625 -0.05
0.5875 0.0625 -0.05
0.6 0.0625 -0.05
0.0 0.075 -0.05
0.0125 0.075 -0.05
0.025 0.075 -0.05
0.0375 0.075 -0.05
0.05 0.075 -0.05
0.0625 0.075 -0.05
0.075 0.075 -0.05
0.0875 0.075 -0.05
0.1 0.075 -0.05
0.1125 0.075 -0.05
0.125 0.075 -0.05
0.1375 0.075 -0.05
0.15 0.075 -0.05
0.1625 0.075 -0.05
0.175 0.075 -0.05
0.1875 0.075 -0.05
0.2 0.075 -0.05
0.2125 0.075 -0.05
0.225 0.075 -0.05
0.2375 0.075 -0.05
0.25 0.075 -0.05
0.2625 0.075 -0.05
0.275 0.075 -0.05
0.2875 0.075 -0.05
0.3 0.075 -0.05
0.3125 0.075 -0.05
0.325 0.075 -0.05
0.3375 0.075 -0.05
0.35 0.075 -0.05
0.3625 0.075 -0.05
0.375 0.075 -0.05
0.3875 0.075 -0.05
0.4 0.075 -0.05
0.4125 0.075 -0.05
0.425 0.075 -0.05
0.4375 0.075 -0.05
0.45 0.075 -0.05
0.4625 0.075 -0.05
0.475 0.075 -0.05
0.4875 0.075 -0.05
0.5 0.075 -0.05
0.5125 0.075 -0.05
0.525 0.075 -0.05
0.5375 0.075 -0.05
0.55 0.075 -0.05
0.5625 0.075 -0.05
0.575 0.075 -0.05
0.5875 0.075 -0.05
0.6 0.075 -0.05
0.0 0.0875 -0.05
0.0125 0.0875 -0.05
0.025 0.0875 -0.05
0.0375 0.0875 -0.05
0.05 0.0875 -0.05
0.0625 0.0875 -0.05
0.075 0.0875 -0.05
0.0875 0.0875 -0.05
0.1 0.0875 -0.05
0.1125 0.0875 -0.05
0.125 0.0875 -0.05
0.1375 0.0875 -0.05
0.15 0.0875 -0.05
0.1625 0.0875 -0.05
0.175 0.0875 -0.05
0.1875 0.0875 -0.05
0.2 0.0875 -0.05
0.2125 0.0875 -0.05
0.225 0.0875 -0.05
0.2375 0.0875 -0.05
0.25 0.0875 -0.05
0.2625 0.0875 -0.05
0.275 0.0875 -0.05
0.2875 0.0875 -0.05
0.3 0.0875 -0.05
0.3125 0.0875 -0.05
0.325 0.0875 -0.05
0.3375 0.0875 -0.05
0.35 0.0875 -0.05
0.3625 0.0875 -0.05
0.375 0.0875 -0.05
0.3875 0.0875 -0.05
0.4 0.0875 -0.05
0.4125 0.0875 -0.05
0.425 0.0875 -0.05
0.4375 0.0875 -0.05
0.45 0.0875 -0.05
0.4625 0.0875 -0.05
0.475 0.0875 -0.05
0.4875 0.0875 -0.05
0.5 0.0875 -0.05
0.5125 0.0875 -0.05
0.525 0.0875 -0.05
0.5375 0.0875 -0.05
0.55 0.0875 -0.05
0.5625 0.0875 -0.05
0.575 0.0875 -0.05
0.5875 0.0875 -0.05
0.6 0.0875 -0.05
0.0 0.1 -0.05
0.0125 0.1 -0.05
0.025 0.1 -0.05
0.0375 0.1 -0.05
0.05 0.1 -0.05
0.0625 0.1 -0.05
0.075 0.1 -0.05
0.0875 0.1 -0.05
0.1 0.1 -0.05
0.1125 0.1 -0.05
0.125 0.1 -0.05
0.1375 0.1 -0.05
0.15 0.1 -0.05
0.1625 0.1 -0.05
0.175 0.1 -0.05
0.1875 0.1 -0.05
0.2 0.1 -0.05
0.2125 0.1 -0.05
0.225 0.1 -0.05
0.2375 0.1 -0.05
0.25 0.1 -0.05
0.2625 0.1 -0.05
0.275 0.1 -0.05
0.2875 0.1 -0.05
0.3 0.1 -0.05
0.3125 0.1 -0.05
0.325 0.1 -0.05
0.3375 0.1 -0.05
0.35 0.1 -0.05
0.3625 0.1 -0.05
0.375 0.1 -0.05
0.3875 0.1 -0.05
0.4 0.1 -0.05
0.4125 0.1 -0.05
0.425 0.1 -0.05
0.4375 0.1 -0.05
0.45 0.1 -0.05
0.4625 0.1 -0.05
0.475 0.1 -0.05
0.4875 0.1 -0.05
0.5 0.1 -0.05
0.5125 0.1 -0.05
0.525 0.1 -0.05
0.5375 0.1 -0.05
0.55 0.1 -0.05
0.5625 0.1 -0.05
0.575 0.1 -0.05
0.5875 0.1 -0.05
0.6 0.1 -0.05
0.0 0.1125 -0.05
0.0125 0.1125 -0.05
0.025 0.1125 -0.05
0.0375 0.1125 -0.05
0.05 0.1125 -0.05
0.0625 0.1125 -0.05
0.075 0.1125 -0.05
0.0875 0.1125 -0.05
0.1 0.1125 -0.05
0.1125 0.1125 -0.05
0.125 0.1125 -0.05
0.1375 0.1125 -0.05
0.15 0.1125 -0.05
0.1625 0.1125 -0.05
0.175 0.1125 -0.05
0.1875 0.1125 -0.05
0.2 0.1125 -0.05
0.2125 0.1125 -0.05
0.225 0.1125 -0.05
0.2375 0.1125 -0.05
0.25 0.1125 -0.05
0.2625 0.1125 -0.05
0.275 0.1125 -0.05
0.2875 0.1125 -0.05
0.3 0.1125 -0.05
0.3125 0.1125 -0.05
0.325 0.1125 -0.05
0.3375 0.1125 -0.05
0.35 0.1125 -0.05
0.3625 0.1125 -0.05
0.375 0.1125 -0.05
0.3875 0.1125 -0.05
0.4 0.1125 -0.05
0.4125 0.1125 -0.05
0.425 0.1125 -0.05
0.4375 0.1125 -0.05
0.45 0.1125 -0.05
0.4625 0.1125 -0.05
0.475 0.1125 -0.05
0.4875 0.1125 -0.05
0.5 0.1125 -0.05
0.5125 0.1125 -0.05
0.525 0.1125 -0.05
0.5375 0.1125 -0.05
0.55 0.1125 -0.05
0.5625 0.1125 -0.05
0.575 0.1125 -0.05
0.5875 0.1125 -0.05
0.6 0.1125 -0.05
0.0 0.125 -0.05
0.0125 0.125 -0.05
0.025 0.125 -0.05
0.0375 0.125 -0.05
0.05 0.125 -0.05
0.0625 0.125 -0.05
0.075 0.125 -0.05
0.0875 0.125 -0.05
0.1 0.125 -0.05
0.1125 0.125 -0.05
0.125 0.125 -0.05
0.1375 0.125 -0.05
0.15 0.125 -0.05
0.1625 0.125 -0.05
0.175 0.125 -0.05
0.1875 0.125 -0.05
0.2 0.125 -0.05
0.2125 0.125 -0.05
0.225 0.125 -0.05
0.2375 0.125 -0.05
0.25 0.125 -0.05
0.2625 0.125 -0.05
0.275 0.125 -0.05
0.2875 0.125 -0.05
0.3 0.125 -0.05
0.3125 0.125 -0.05
0.325 0.125 -0.05
0.3375 0.125 -0.05
0.35 0.125 -0.05
0.3625 0.125 -0.05
0.375 0.125 -0.05
0.3875 0.125 -0.05
0.4 0.125 -0.05
0.4125 0.125 -0.05
0.425 0.125 -0.05
0.4375 0.125 -0.05
0.45 0.125 -0.05
0.4625 0.125 -0.05
0.475 0.125 -0.05
0.4875 0.125 -0.05
0.5 0.125 -0.05
0.5125 0.125 -0.05
0.525 0.125 -0.05
0.5375 0.125 -0.05
0.55 0.125 -0.05
0.5625 0.125 -0.05
0.575 0.125 -0.05
0.5875 0.125 -0.05
0.6 0.125 -0.05
0.0 0.1375 -0.05
0.0125 0.1375 -0.05
0.025 0.1375 -0.05
0.0375 0.1375 -0.05
0.05 0.1375 -0.05
0.0625 0.1375 -0.05
0.075 0.1375 -0.05
0.0875 0.1375 -0.05
[...]
CELL_DATA 16128
SCALARS P float 1
LOOKUP_TABLE default
100000.00000003868
99999.99999989248
100000.00000029367
99999.99999919182
100000.00000221728
99999.99999390979
100000.00001671757
99999.9999541069
100000.00012595789
99999.99965433918
100000.0009484161
99999.99739821236
100000.00713606477
99999.98043177248
100000.05364607756
99999.8529709422
100000.40283262664
99998.89676746693
100003.01919661398
99991.75859995195
100022.05630823607
99951.10575304851
99849.87000001872
109643.17951251018
217582.18474337258
488048.52992801357
798360.146220065
979700.359678511
1.036212376422249e6
1.0537910929037658e6
1.0658914072047314e6
1.0772180948500158e6
1.0881053139761316e6
1.0985441141856702e6
1.1085192980668312e6
1.1180187619766265e6
1.1270281440650336e6
1.1355287572670311e6
1.143493819125307e6
1.1508951120907469e6
1.157682498386625e6
1.163845542410279e6
1.1692357601561514e6
1.1740970570699722e6
1.1775047715867932e6
1.1820025659435228e6
1.1798386837379637e6
1.1938267056747742e6
100000.0000000377
99999.99999989523
100000.00000028584
99999.99999921322
100000.00000215851
99999.99999407097
100000.00001627665
99999.99995531337
100000.00012266311
99999.99966332567
100000.00092394475
99999.99746473583
100000.00695560932
99999.98091999993
100000.0523297475
99999.85650257618
100000.39342708605
99998.92152496979
100002.95529745155
99991.91763820317
100021.69486637361
99951.57119613937
99855.60409794102
109336.53135129547
216258.27535451757
487037.7919615065
800486.330490745
985529.1182980365
1.0440257109482278e6
1.0624452773523177e6
1.0749864114767534e6
1.0865958156750635e6
1.0977027963608343e6
1.1083433376036743e6
1.118522575151403e6
1.1282360703364443e6
1.1374706263879207e6
1.1462052244708135e6
1.1544086064474413e6
1.162046387147956e6
1.1690608982625646e6
1.1754324261936848e6
1.181002738737347e6
1.1860034510926094e6
1.1895003338687308e6
1.1940360254095078e6
1.1917966531892817e6
1.2059895055381397e6
100000.00000003523
99999.99999990207
100000.0000002678
99999.99999926395
100000.00000201995
99999.99999445186
100000.00001523356
99999.99995816936
100000.00011485418
99999.99968465266
100000.00086578426
99999.99762308813
100000.00652525964
99999.9820871066
100000.04917210234
99999.86502267189
100000.37050650065
99998.98298963081
100002.79100473736
99992.35495322048
100020.55274890637
99954.04227712179
99862.69449973029
108642.78707774203
212374.25650875826
480001.29273151356
793568.5054352403
980885.3622762394
1.0405909102945018e6
1.0591218434341655e6
1.0715362566937753e6
1.082988819108511e6
1.0939284952106406e6
1.1043904719022475e6
1.1143792328159295e6
1.1238910387434687e6
1.1329143455204084e6
1.1414304131066005e6
1.149410892169646e6
1.1568246810631007e6
1.1636187289055677e6
1.169776998673125e6
1.1751510050107231e6
1.1799693723604092e6
1.1833306752070172e6
1.1877283908202986e6
1.1854215351043604e6
1.1998062825709088e6
100000.00000003168
99999.99999991186
100000.00000024066
99999.99999933808
100000.00000181627
99999.99999501172
100000.00001369578
99999.99996239002
100000.00010327919
99999.99971636778
100000.00077897338
99999.9978604524
100000.0058769957
99999.98385538501
100000.04435500098
99999.8781278936
100000.3348995698
99999.07961542522
100002.52911570415
99993.06293251725
100018.67348799157
99958.20958210978
99873.73978106413
107609.26361481393
206322.0319555405
469134.0007505175
783764.9433505038
975917.4042340479
1.0383904963533627e6
1.0575482207308577e6
1.0700621661743904e6
1.0815242267480742e6
1.0924476342696578e6
1.102881814506061e6
1.1128387035159701e6
1.1223198195845983e6
1.1313176256899736e6
1.1398165281612396e6
1.1477907813595154e6
1.155210959172791e6
1.1620257027042052e6
1.1682172868343748e6
1.1736403851583372e6
1.1785080519571074e6
1.1819417971747352e6
1.1863691506192219e6
1.1840838332123929e6
1.198842983356395e6
100000.00000002728
99999.99999992427
100000.00000020672
99999.99999943143
100000.00000155867
99999.99999572165
100000.00001174025
99999.99996777494
100000.00008846038
99999.999757126
100000.00066693865
99999.99816821312
100000.00503215086
99999.98617293057
100000.03800240996
99999.89552715201
100000.28728364958
99999.20981013554
100002.17353296593
99994.0313745549
100016.08440591146
99964.02354432683
99888.63408338398
106338.14577155399
198342.99597087505
454427.6260190754
770251.3310387889
968904.1259330356
1.0351326161381479e6
1.0550273681876645e6
1.067535180357141e6
1.0788881829440575e6
1.0896828314636976e6
1.0999784253744506e6
1.109790330320913e6
1.1191229241100508e6
1.1279713861279094e6
1.136322706964714e6
1.1441537550292884e6
1.1514372338731647e6
1.1581246438091367e6
1.164197996719247e6
1.1695187255592118e6
1.1742862172563584e6
1.177656441938275e6
1.1819903730039806e6
1.1796360725304645e6
1.1948057931764466e6
100000.00000002226
99999.99999993837
100000.00000016797
99999.99999953937
100000.0000012614
99999.99999654379
100000.00000946964
99999.99997404728
100000.00007113944
99999.99980494766
100000.00053494296
99999.99853243839
100000.0040274374
99999.9889434621
100000.0303655231
99999.91656895369
100000.22933582345
99999.36930384004
100001.73492621542
99995.23461032912
100012.84085219915
99971.44462113666
99905.9099010906
104953.44822791174
188758.3919592348
436051.096788962
752904.3585238522
959802.7002834337
1.0310827985690945e6
1.0520328627250914e6
1.064554349687367e6
1.0757770118528977e6
1.086418638429018e6
1.0965517865685439e6
1.1061956646598633e6
1.115358028829257e6
1.1240374543148302e6
1.1322242636248702e6
1.139898702445106e6
1.1470362675305326e6
1.1535918922518918e6
1.1595473981467683e6
1.1647711724966664e6
1.1694474255091741e6
1.172767167439951e6
1.1770233634205668e6
1.1745996558463657e6
1.1903008742795282e6
100000.00000001701
99999.99999995352
100000.00000012637
99999.99999965438
100000.00000094213
99999.99999742759
100000.0000070212
99999.9999808301
100000.00005234894
99999.99985700517
100000.0003907151
99999.99893203986
100000.00292027605
99999.99201102402
100000.02186660169
99999.94011454219
100000.16411105932
99999.54995814293
100001.23476618732
99996.6168536392
100009.08130506986
99980.2390364531
99923.23427758411
103583.47751786473
177958.00606773244
414238.17881214747
731520.4159456809
948270.1686870349
1.0260481213316643e6
1.0484462861406693e6
1.0609995116281088e6
1.0720503563922192e6
1.0824901558609442e6
1.0924095179961645e6
1.1018312191289598e6
1.110766007465828e6
1.1192156923866386e6
1.1271739649076131e6
1.1346246751778678e6
1.1415465352477767e6
1.1478986117981847e6
1.153663526521864e6
1.1587182773806492e6
1.1632339428242368e6
1.166440334931637e6
1.1705682271863404e6
1.1680223562895732e6
1.1843644932642374e6
100000.00000001148
99999.99999996861
100000.00000008497
99999.99999976983
100000.00000062265
99999.99999831455
100000.00000456016
99999.99998766289
100000.00003337325
99999.99990972111
100000.00024422037
99999.99933927874
100000.00178781389
99999.9951612868
100000.01310026615
99999.96451713216
100000.09616016231
99999.73923029104
100000.7075067739
99998.08396282785
100005.05670275539
99989.8704963838
99938.01086450118
102344.97458500013
166393.12338299106
389311.63853585115
705915.0727900644
933934.6802109352
1.0198655247143027e6
1.0442420117741902e6
1.056880813010386e6
1.0677283563234133e6
1.0779226008259973e6
1.0875804891513232e6
1.096728619326832e6
1.105380431425533e6
1.1135408047034591e6
1.1212068217163843e6
1.12836617416193e6
1.1350013041603672e6
1.1410762547029324e6
1.1465758140457578e6
1.1513873859991904e6
1.155671862156269e6
1.1587005904878473e6
1.1626503393203716e6
1.15992432834667e6
1.1770514794344641e6
100000.0000000065
99999.99999998261
100000.00000004654
99999.99999987711
100000.00000032519
99999.99999914103
100000.00000226415
99999.99999404445
100000.00001562762
99999.99995909669
100000.0001067569
99999.99972222185
100000.00072032535
99999.99813903257
100000.00478800814
99999.9877374956
100000.03124489385
99999.92084812786
100000.19906704122
99999.50660692819
100001.12546446525
99999.47916730387
99948.29694236796
101327.655857781
154563.65369897845
361700.67635405215
675937.6755417787
916353.992336667
1.0123128532034741e6
1.0393695472211622e6
1.0521879491401948e6
1.062804827253174e6
1.0727069627473145e6
1.0820506285131143e6
1.0908668356047827e6
1.0991710843083172e6
1.106970668373159e6
1.1142655129770704e6
1.1210467604639763e6
1.127300456293285e6
1.1329957965824844e6
1.1381205793228752e6
1.1425738492736449e6
1.1465096654076788e6
1.1492441233503115e6
1.1529131458462314e6
1.1498971449449128e6
1.1679723968802441e6
100000.00000000231
99999.99999999444
100000.00000001342
99999.99999996924
100000.00000007004
99999.99999984873
100000.00000030034
99999.99999949818
100000.00000047177
100000.0000012471
99999.9999894351
100000.00004906031
99999.99980896439
100000.00068279392
99999.99768049648
100000.00761864924
99999.97556799349
100000.07696210247
99999.76083646092
100000.73688618351
99997.70890950943
100007.97031426936
99953.69967833442
100581.6294751386
142996.68170398645
331959.9566959809
641508.2778029501
895021.4358999989
1.0031016376211228e6
1.0337644375538632e6
1.0469154929890604e6
1.0572827271476556e6
1.0668449423184858e6
1.0758179048471628e6
1.0842383086708882e6
1.092122763277499e6
1.099479783327201e6
1.1063109378688144e6
1.1126097235936457e6
1.1183650122219108e6
1.1235508858854494e6
1.1281590952925307e6
1.1321023314509827e6
1.135533581756735e6
1.1378195332171014e6
1.1410739288935529e6
1.1376280651778937e6
1.156872873953623e6
99999.999999999
100000.00000000386
99999.99999998741
100000.00000004056
99999.99999987335
100000.00000039196
99999.99999879961
100000.00000364799
99999.99998898925
100000.000033047
99999.99990129068
100000.00029362667
99999.99912965113
100000.00257190969
99999.99242021093
100000.0222866897
99999.9346043111
100000.19155046728
99999.43977120289
100001.63705857571
99995.20928655229
100014.22344015547
99955.73491709112
100111.09271697246
132213.58364511566
300783.01348320715
602663.3452016107
869376.8883575775
991855.0892166899
1.0273350135363722e6
1.0410569591115403e6
1.0511692609338486e6
1.0603431897180644e6
1.068885127629583e6
1.0768399160345392e6
1.0842238985575133e6
1.0910447737577457e6
1.0973033525220477e6
1.1029927014722645e6
1.1081013516711337e6
1.1126045715326911e6
1.116494081661641e6
1.1196913759479774e6
1.1223457857230012e6
1.1238721570647617e6
1.1263842590133874e6
1.122150810309541e6
1.142741904690635e6
99999.9999999965
100000.00000001033
99999.99999996992
100000.00000008795
99999.99999974374
100000.000000746
99999.99999783318
100000.00000628676
99999.99998178237
100000.00005273618
99999.99984747556
100000.00044079307
99999.99872693841
100000.00367478379
99999.98939698933
100000.0305834439
99999.91180447968
100000.25430362749
99999.26676133841
100002.11432406901
99993.90642990655
100017.38939090152
99957.28407796424
99877.36107629431
122684.9107776257
269004.74963153695
559609.294094454
838833.1377046813
978086.8863452926
1.0199479630134355e6
1.0346019472297542e6
1.0444769181126383e6
1.0532158649345469e6
1.0612637138659682e6
1.0686781331531892e6
1.0754734983790126e6
1.081653788266645e6
1.0872154939120128e6
1.092147108657377e6
1.09643235330804e6
1.1000434335620617e6
1.102969387482973e6
1.1051403562764875e6
1.106712641839271e6
1.107163057964678e6
1.1086471037747716e6
1.1033416485944611e6
1.125702144930732e6
99999.99999999529
100000.00000001377
99999.99999996087
100000.00000011188
99999.99999968096
100000.0000009114
99999.99999740001
100000.00000741669
99999.99997884958
100000.00006030344
99999.99982808353
100000.00049008397
99999.99860289111
100000.0039831394
99999.98864238462
100000.03239265211
99999.90758633697
100000.26374842944
99999.24692717784
100002.15106296304
99993.86282477062
100017.19494893186
99961.32604483257
99812.16311418415
114775.9122736367
237587.16988918753
512779.30793317733
802821.6532257602
961181.7822816041
1.0114081452280926e6
1.0275305050091819e6
1.0372229086992654e6
1.0454855310994405e6
1.052975331785922e6
1.0597713861348953e6
1.0658841553605201e6
1.0713096873224871e6
1.0760343086583295e6
1.0800338594199708e6
1.0832758186207619e6
1.0857125589784035e6
1.08730475634013e6
1.0879543155914715e6
1.0877644112390582e6
1.0861948200214591e6
1.0853983245161918e6
1.0774191321954753e6
1.1009766646791014e6
99999.99999999482
100000.00000001452
99999.99999995915
100000.00000011493
99999.99999967603
100000.00000091326
99999.99999742732
100000.00000724733
99999.99997958603
100000.00005749626
99999.99983806557
100000.00045607662
99999.99871543518
100000.00361836683
99999.98980635282
100000.0287230431
99999.9190454566
100000.22823894053
99999.35627612236
100001.8159831696
99994.88563768381
100014.09352812824
99969.50290069962
99838.48246851504
108691.6339646483
207582.36217471314
462886.19022501254
760861.8445690426
940383.1050919073
1.0014316736400177e6
1.0198043032709328e6
1.0294277888573498e6
1.0371839696149871e6
1.0440538537916623e6
1.0501534005601113e6
1.0554877226735484e6
1.0600400408516112e6
1.0637796734110003e6
1.066660867637335e6
1.0686237948889895e6
1.0695903151093263e6
1.0694843857430962e6
1.0681783277609767e6
1.0657653011551644e6
1.0617689735406756e6
1.0584675729407477e6
1.0478658216786148e6
1.074256202697512e6
99999.99999999526
100000.00000001323
99999.99999996311
100000.00000010265
99999.99999971398
100000.00000079526
99999.99999778843
100000.00000614679
99999.9999829233
100000.00004741825
99999.99986839783
100000.00036504313
99999.99898799673
100000.00280389992
99999.99223621575
100000.0214832635
99999.94059437147
100000.16414878734
99999.54678629989
100001.24993320575
99996.5647760362
100009.19562579818
99981.14520998427
99892.1822102995
104437.26192618806
180066.9349672178
410961.0094837108
712655.8225162268
914795.0277353313
989611.3419725412
1.0113528437373793e6
1.0211124128018364e6
1.0283522077697573e6
1.0345464450645149e6
1.0398749983065317e6
1.0443375405139041e6
1.0478984879571488e6
1.0505003532124117e6
1.0520599498759184e6
1.0524643601406987e6
1.0515547796526966e6
1.049135042695495e6
1.0448805894690449e6
1.0385400408556686e6
1.029087138586921e6
1.0179167308837334e6
995598.9958124551
1.0135843564608808e6
99999.99999999597
100000.00000001078
99999.99999997037
100000.0000000813
99999.99999977686
100000.0000006106
99999.99999833058
100000.00000455699
99999.99998757902
100000.00003379234
99999.9999082489
100000.0002485467
99999.99932844586
100000.00180912719
99999.99514285648
100000.01298916178
99999.96542369609
100000.09153885893
99999.75924233985
100000.62795846674
99998.38402112179
100003.96451935243
99993.62208756014
99935.80936466716
101812.67249768293
156042.88525818096
358364.363868693
658206.5632943315
883411.3070339437
975375.367237298
1.0020526651124927e6
1.0122924055099008e6
1.0190396742504404e6
1.0245143538969588e6
1.029006499129478e6
1.0325140685383957e6
1.0349778909370439e6
1.0363055399315077e6
1.0363642142081532e6
1.0349728973496867e6
1.0318812826342704e6
1.0267691577385585e6
1.0191695148176551e6
1.0087008588892132e6
994369.7059028534
977894.1040832499
950161.1529649656
973223.974520678
99999.99999999699
100000.00000000765
99999.99999997889
100000.00000005688
99999.99999984677
100000.00000040913
99999.99999890842
100000.00000289668
99999.99999234638
100000.00002010749
99999.99994752223
100000.00013585675
99999.99965176484
100000.00088150278
99999.99780445558
100000.00535114484
99999.9873480377
100000.02858483777
99999.94009014872
100000.10824570144
99999.87591138827
99999.7524665383
100003.69568499793
99959.35869834197
100455.16668224486
136304.22775795317
306754.94878107717
597950.2677589637
845185.6646823632
957944.1705039351
991697.2580343301
1.0029688105446381e6
1.0093016003224491e6
1.0140318700838294e6
1.01763674287813e6
1.0201228733522134e6
1.0214043490232403e6
1.0213447498107771e6
1.0197459951771406e6
1.0163283497723482e6
1.0106768032366557e6
1.0021790487955781e6
989804.7526521903
971974.8852901288
945000.4564440796
903984.8328902221
825430.5227755831
697091.0949535753
99999.99999999804
100000.0000000049
99999.99999998676
100000.0000000344
99999.99999991001
100000.00000023088
99999.99999941146
100000.00000147996
99999.99999633232
100000.00000890289
99999.99997898628
100000.0000475936
99999.99989907588
100000.00018940683
99999.99973864252
99999.99995377616
100000.0023845971
99999.9867714817
100000.05612182345
99999.78708493055
100000.76067851586
99997.36675329825
100009.10550332803
99969.78379796949
99928.25936194445
121283.61692506981
258000.05666614466
532882.3053897978
799158.5107945404
936295.2871789596
979955.3893774926
993113.2288596178
999194.2982330768
1.0031841329888717e6
1.0058716770413243e6
1.007294901373469e6
1.0073434168335444e6
1.0058339435643952e6
1.0025040835075012e6
996971.7516096842
988664.988526586
976720.226362067
959703.6826803253
935392.848731647
899247.0799966459
845337.7092430806
754221.8013349286
617817.4942327066
99999.99999999885
100000.00000000274
99999.99999999294
100000.00000001704
99999.99999995859
100000.00000009735
99999.99999977845
100000.00000047346
99999.99999908428
100000.00000140407
99999.99999934019
99999.99999260435
100000.0000468257
99999.99979502059
100000.00078297949
99999.9972156934
100000.00947353973
99999.96871720026
100000.10109153937
99999.67858812306
100001.00923951494
99996.86244394394
100009.55086183429
99977.28620396032
99830.49297497477
110922.67766607745
214017.46999584005
464643.6714393434
744647.0770686631
909152.9317639075
966315.7525234352
982644.6146681184
988766.9549708411
992062.425511821
993829.0197374942
994178.5550654739
992984.3097642232
990026.822200545
984987.3664580984
977407.3938883347
966610.0598852339
951596.1002878213
930784.3795663118
901853.3756238467
860567.5345598003
801998.1103921862
713093.7449150343
592378.6579243997
99999.99999999935
100000.0000000008
99999.99999999725
100000.00000000533
99999.99999998983
100000.00000001438
99999.99999999777
99999.99999989868
100000.00000057585
99999.99999758031
100000.00000898448
99999.99996879416
100000.00010387202
99999.999664315
100000.00106126901
99999.99670182825
100000.01010796626
99999.96938405104
100000.09178719873
99999.72734369083
100000.80295312277
99997.65921937033
100006.5966110944
99986.74089801617
99879.85818497914
104636.94557137004
176546.9028406207
395528.7258727514
681491.9232220461
875027.278648054
950018.4031304495
971394.0289738313
978048.5378215456
980756.9752474837
981630.5873358137
980926.9766757564
978523.6959283033
974177.6491646369
967534.4046290313
958093.0286800602
945135.0136855346
927637.8216812189
904071.0401720362
872330.2757274439
828946.5735338934
770369.7366911178
688616.1107226585
585274.6934579499
99999.99999999991
99999.99999999994
99999.99999999971
99999.99999999879
100000.00000000541
99999.99999997446
100000.00000009385
99999.99999967343
100000.00000107854
99999.99999654871
100000.0000107667
99999.99996705436
100000.00009917817
99999.99970563868
100000.00086245252
99999.99750389873
100000.0071367774
99999.97985053275
100000.0561164145
99999.84612052407
100000.41412624028
99998.91505302377
100002.63952369052
99996.7100298238
99937.09411711723
101433.8529624803
146859.17764192537
328377.78937080316
610332.8681777751
832338.9513028305
929981.5900984112
959053.6925510655
967028.1364520947
969347.7002422019
969394.1621096355
967687.8988410297
964145.9344931939
958517.4658603014
950434.9321995998
939389.2549887863
924674.229897487
905325.3249525488
879978.3225908168
846877.296972117
803392.2540938259
747158.5793389681
673605.2303114715
585113.7254640921
100000.00000000003
99999.9999999997
100000.00000000074
99999.99999999654
100000.00000001064
99999.99999996464
100000.00000010863
99999.99999966903
100000.00000098534
99999.9999971114
100000.00000833374
99999.99997631043
100000.00006631722
99999.99981734827
100000.00049391178
99999.99869317665
100000.00336417425
99999.99165351568
100000.01961433419
99999.95788419104
100000.07500193012
99999.9339049555
99999.66364192711
100003.59761792958
99967.83714645212
100173.16796724063
125439.79353732085
266327.3134440743
532856.0417173898
779665.7937566348
904746.5878645573
945107.7467764512
955626.2247529075
957892.365410604
957224.9198996428
954595.6217431433
950012.1840800402
943238.4313279941