# vtk DataFile Version 2.0
JuliaCFD
ASCII
DATASET UNSTRUCTURED_GRID

POINTS 32898 float
0.0 0.0 -0.05
0.0125 0.0 -0.05
0.025 0.0 -0.05
0.0375 0.0 -0.05
0.05 0.0 -0.05
0.0625 0.0 -0.05
0.075 0.0 -0.05
0.0875 0.0 -0.05
0.1 0.0 -0.05
0.1125 0.0 -0.05
0.125 0.0 -0.05
0.1375 0.0 -0.05
0.15 0.0 -0.05
0.1625 0.0 -0.05
0.175 0.0 -0.05
0.1875 0.0 -0.05
0.2 0.0 -0.05
0.2125 0.0 -0.05
0.225 0.0 -0.05
0.2375 0.0 -0.05
0.25 0.0 -0.05
0.2625 0.0 -0.05
0.275 0.0 -0.05
0.2875 0.0 -0.05
0.3 0.0 -0.05
0.3125 0.0 -0.05
0.325 0.0 -0.05
0.3375 0.0 -0.05
0.35 0.0 -0.05
0.3625 0.0 -0.05
0.375 0.0 -0.05
0.3875 0.0 -0.05
0.4 0.0 -0.05
0.4125 0.0 -0.05
0.425 0.0 -0.05
0.4375 0.0 -0.05
0.45 0.0 -0.05
0.4625 0.0 -0.05
0.475 0.0 -0.05
0.4875 0.0 -0.05
0.5 0.0 -0.05
0.5125 0.0 -0.05
0.525 0.0 -0.05
0.5375 0.0 -0.05
0.55 0.0 -0.05
0.5625 0.0 -0.05
0.575 0.0 -0.05
0.5875 0.0 -0.05
0.6 0.0 -0.05
0.0 0.0125 -0.05
0.0125 0.0125 -0.05
0.025 0.0125 -0.05
0.0375 0.0125 -0.05
0.05 0.0125 -0.05
0.0625 0.0125 -0.05
0.075 0.0125 -0.05
0.0875 0.0125 -0.05
0.1 0.0125 -0.05
0.1125 0.0125 -0.05
0.125 0.0125 -0.05
0.1375 0.0125 -0.05
0.15 0.0125 -0.05
0.1625 0.0125 -0.05
0.175 0.0125 -0.05
0.1875 0.0125 -0.05
0.2 0.0125 -0.05
0.2125 0.0125 -0.05
0.225 0.0125 -0.05
0.2375 0.0125 -0.05
0.25 0.0125 -0.05
0.2625 0.0125 -0.05
0.275 0.0125 -0.05
0.2875 0.0125 -0.05
0.3 0.0125 -0.05
0.3125 0.0125 -0.05
0.325 0.0125 -0.05
0.3375 0.0125 -0.05
0.35 0.0125 -0.05
0.3625 0.0125 -0.05
0.375 0.0125 -0.05
0.3875 0.0125 -0.05
0.4 0.0125 -0.05
0.4125 0.0125 -0.05
0.425 0.0125 -0.05
0.4375 0.0125 -0.05
0.45 0.0125 -0.05
0.4625 0.0125 -0.05
0.475 0.0125 -0.05
0.4875 0.0125 -0.05
0.5 0.0125 -0.05
0.5125 0.0125 -0.05
0.525 0.0125 -0.05
0.5375 0.0125 -0.05
0.55 0.0125 -0.05
0.5625 0.0125 -0.05
0.575 0.0125 -0.05
0.5875 0.0125 -0.05
0.6 0.0125 -0.05
0.0 0.025 -0.05
0.0125 0.025 -0.05
0.025 0.025 -0.05
0.0375 0.025 -0.05
0.05 0.025 -0.05
0.0625 0.025 -0.05
0.075 0.025 -0.05
0.0875 0.025 -0.05
0.1 0.025 -0.05
0.1125 0.025 -0.05
0.125 0.025 -0.05
0.1375 0.025 -0.05
0.15 0.025 -0.05
0.1625 0.025 -0.05
0.175 0.025 -0.05
0.1875 0.025 -0.05
0.2 0.025 -0.05
0.2125 0.025 -0.05
0.225 0.025 -0.05
0.2375 0.025 -0.05
0.25 0.025 -0.05
0.2625 0.025 -0.05
0.275 0.025 -0.05
0.2875 0.025 -0.05
0.3 0.025 -0.05
0.3125 0.025 -0.05
0.325 0.025 -0.05
0.3375 0.025 -0.05
0.35 0.025 -0.05
0.3625 0.025 -0.05
0.375 0.025 -0.05
0.3875 0.025 -0.05
0.4 0.025 -0.05
0.4125 0.025 -0.05
0.425 0.025 -0.05
0.4375 0.025 -0.05
0.45 0.025 -0.05
0.4625 0.025 -0.05
0.475 0.025 -0.05
0.4875 0.025 -0.05
0.5 0.025 -0.05
0.5125 0.025 -0.05
0.525 0.025 -0.05
0.5375 0.025 -0.05
0.55 0.025 -0.05
0.5625 0.025 -0.05
0.575 0.025 -0.05
0.5875 0.025 -0.05
0.6 0.025 -0.05
0.0 0.0375 -0.05
0.0125 0.0375 -0.05
0.025 0.0375 -0.05
0.0375 0.0375 -0.05
0.05 0.0375 -0.05
0.0625 0.0375 -0.05
0.075 0.0375 -0.05
0.0875 0.0375 -0.05
0.1 0.0375 -0.05
0.1125 0.0375 -0.05
0.125 0.0375 -0.05
0.1375 0.0375 -0.05
0.15 0.0375 -0.05
0.1625 0.0375 -0.05
0.175 0.0375 -0.05
0.1875 0.0375 -0.05
0.2 0.0375 -0.05
0.2125 0.0375 -0.05
0.225 0.0375 -0.05
0.2375 0.0375 -0.05
0.25 0.0375 -0.05
0.2625 0.0375 -0.05
0.275 0.0375 -0.05
0.2875 0.0375 -0.05
0.3 0.0375 -0.05
0.3125 0.0375 -0.05
0.325 0.0375 -0.05
0.3375 0.0375 -0.05
0.35 0.0375 -0.05
0.3625 0.0375 -0.05
0.375 0.0375 -0.05
0.3875 0.0375 -0.05
0.4 0.0375 -0.05
0.4125 0.0375 -0.05
0.425 0.0375 -0.05
0.4375 0.0375 -0.05
0.45 0.0375 -0.05
0.4625 0.0375 -0.05
0.475 0.0375 -0.05
0.4875 0.0375 -0.05
0.5 0.0375 -0.05
0.5125 0.0375 -0.05
0.525 0.0375 -0.05
0.5375 0.0375 -0.05
0.55 0.0375 -0.05
0.5625 0.0375 -0.05
0.575 0.0375 -0.05
0.5875 0.0375 -0.05
0.6 0.0375 -0.05
0.0 0.05 -0.05
0.0125 0.05 -0.05
0.025 0.05 -0.05
0.0375 0.05 -0.05
0.05 0.05 -0.05
0.0625 0.05 -0.05
0.075 0.05 -0.05
0.0875 0.05 -0.05
0.1 0.05 -0.05
0.1125 0.05 -0.05
0.125 0.05 -0.05
0.1375 0.05 -0.05
0.15 0.05 -0.05
0.1625 0.05 -0.05
0.175 0.05 -0.05
0.1875 0.05 -0.05
0.2 0.05 -0.05
0.2125 0.05 -0.05
0.225 0.05 -0.05
0.2375 0.05 -0.05
0.25 0.05 -0.05
0.2625 0.05 -0.05
0.275 0.05 -0.05
0.2875 0.05 -0.05
0.3 0.05 -0.05
0.3125 0.05 -0.05
0.325 0.05 -0.05
0.3375 0.05 -0.05
0.35 0.05 -0.05
0.3625 0.05 -0.05
0.375 0.05 -0.05
0.3875 0.05 -0.05
0.4 0.05 -0.05
0.4125 0.05 -0.05
0.425 0.05 -0.05
0.4375 0.05 -0.05
0.45 0.05 -0.05
0.4625 0.05 -0.05
0.475 0.05 -0.05
0.4875 0.05 -0.05
0.5 0.05 -0.05
0.5125 0.05 -0.05
0.525 0.05 -0.05
0.5375 0.05 -0.05
0.55 0.05 -0.05
0.5625 0.05 -0.05
0.575 0.05 -0.05
0.5875 0.05 -0.05
0.6 0.05 -0.05
0.0 0.0625 -0.05
0.0125 0.0625 -0.05
0.025 0.0625 -0.05
0.0375 0.0625 -0.05
0.05 0.0625 -0.05
0.0625 0.0625 -0.05
0.075 0.0625 -0.05
0.0875 0.0625 -0.05
0.1 0.0625 -0.05
0.1125 0.0625 -0.05
0.125 0.0625 -0.05
0.1375 0.0625 -0.05
0.15 0.0625 -0.05
0.1625 0.0625 -0.05
0.175 0.0625 -0.05
0.1875 0.0625 -0.05
0.2 0.0625 -0.05
0.2125 0.0625 -0.05
0.225 0.0625 -0.05
0.2375 0.0625 -0.05
0.25 0.0625 -0.05
0.2625 0.0625 -0.05
0.275 0.0625 -0.05
0.2875 0.0625 -0.05
0.3 0.0625 -0.05
0.3125 0.0625 -0.05
0.325 0.0625 -0.05
0.3375 0.0625 -0.05
0.35 0.0625 -0.05
0.3625 0.0625 -0.05
0.375 0.0625 -0.05
0.3875 0.0625 -0.05
0.4 0.0625 -0.05
0.4125 0.0625 -0.05
0.425 0.0625 -0.05
0.4375 0.0625 -0.05
0.45 0.0625 -0.05
0.4625 0.0625 -0.05
0.475 0.0625 -0.05
0.4875 0.0625 -0.05
0.5 0.0625 -0.05
0.5125 0.0625 -0.05
0.525 0.0625 -0.05
0.5375 0.0625 -0.05
0.55 0.0625 -0.05
0.5625 0.0625 -0.05
0.575 0.0625 -0.05
0.5875 0.0625 -0.05
0.6 0.0625 -0.05
0.0 0.075 -0.05
0.0125 0.075 -0.05
0.025 0.075 -0.05
0.0375 0.075 -0.05
0.05 0.075 -0.05
0.0625 0.075 -0.05
0.075 0.075 -0.05
0.0875 0.075 -0.05
0.1 0.075 -0.05
0.1125 0.075 -0.05
0.125 0.075 -0.05
0.1375 0.075 -0.05
0.15 0.075 -0.05
0.1625 0.075 -0.05
0.175 0.075 -0.05
0.1875 0.075 -0.05
0.2 0.075 -0.05
0.2125 0.075 -0.05
0.225 0.075 -0.05
0.2375 0.075 -0.05
0.25 0.075 -0.05
0.2625 0.075 -0.05
0.275 0.075 -0.05
0.2875 0.075 -0.05
0.3 0.075 -0.05
0.3125 0.075 -0.05
0.325 0.075 -0.05
0.3375 0.075 -0.05
0.35 0.075 -0.05
0.3625 0.075 -0.05
0.375 0.075 -0.05
0.3875 0.075 -0.05
0.4 0.075 -0.05
0.4125 0.075 -0.05
0.425 0.075 -0.05
0.4375 0.075 -0.05
0.45 0.075 -0.05
0.4625 0.075 -0.05
0.475 0.075 -0.05
0.4875 0.075 -0.05
0.5 0.075 -0.05
0.5125 0.075 -0.05
0.525 0.075 -0.05
0.5375 0.075 -0.05
0.55 0.075 -0.05
0.5625 0.075 -0.05
0.575 0.075 -0.05
0.5875 0.075 -0.05
0.6 0.075 -0.05
0.0 0.0875 -0.05
0.0125 0.0875 -0.05
0.025 0.0875 -0.05
0.0375 0.0875 -0.05
0.05 0.0875 -0.05
0.0625 0.0875 -0.05
0.075 0.0875 -0.05
0.0875 0.0875 -0.05
0.1 0.0875 -0.05
0.1125 0.0875 -0.05
0.125 0.0875 -0.05
0.1375 0.0875 -0.05
0.15 0.0875 -0.05
0.1625 0.0875 -0.05
0.175 0.0875 -0.05
0.1875 0.0875 -0.05
0.2 0.0875 -0.05
0.2125 0.0875 -0.05
0.225 0.0875 -0.05
0.2375 0.0875 -0.05
0.25 0.0875 -0.05
0.2625 0.0875 -0.05
0.275 0.0875 -0.05
0.2875 0.0875 -0.05
0.3 0.0875 -0.05
0.3125 0.0875 -0.05
0.325 0.0875 -0.05
0.3375 0.0875 -0.05
0.35 0.0875 -0.05
0.3625 0.0875 -0.05
0.375 0.0875 -0.05
0.3875 0.0875 -0.05
0.4 0.0875 -0.05
0.4125 0.0875 -0.05
0.425 0.0875 -0.05
0.4375 0.0875 -0.05
0.45 0.0875 -0.05
0.4625 0.0875 -0.05
0.475 0.0875 -0.05
0.4875 0.0875 -0.05
0.5 0.0875 -0.05
0.5125 0.0875 -0.05
0.525 0.0875 -0.05
0.5375 0.0875 -0.05
0.55 0.0875 -0.05
0.5625 0.0875 -0.05
0.575 0.0875 -0.05
0.5875 0.0875 -0.05
0.6 0.0875 -0.05
0.0 0.1 -0.05
0.0125 0.1 -0.05
0.025 0.1 -0.05
0.0375 0.1 -0.05
0.05 0.1 -0.05
0.0625 0.1 -0.05
0.075 0.1 -0.05
0.0875 0.1 -0.05
0.1 0.1 -0.05
0.1125 0.1 -0.05
0.125 0.1 -0.05
0.1375 0.1 -0.05
0.15 0.1 -0.05
0.1625 0.1 -0.05
0.175 0.1 -0.05
0.1875 0.1 -0.05
0.2 0.1 -0.05
0.2125 0.1 -0.05
0.225 0.1 -0.05
0.2375 0.1 -0.05
0.25 0.1 -0.05
0.2625 0.1 -0.05
0.275 0.1 -0.05
0.2875 0.1 -0.05
0.3 0.1 -0.05
0.3125 0.1 -0.05
0.325 0.1 -0.05
0.3375 0.1 -0.05
0.35 0.1 -0.05
0.3625 0.1 -0.05
0.375 0.1 -0.05
0.3875 0.1 -0.05
0.4 0.1 -0.05
0.4125 0.1 -0.05
0.425 0.1 -0.05
0.4375 0.1 -0.05
0.45 0.1 -0.05
0.4625 0.1 -0.05
0.475 0.1 -0.05
0.4875 0.1 -0.05
0.5 0.1 -0.05
0.5125 0.1 -0.05
0.525 0.1 -0.05
0.5375 0.1 -0.05
0.55 0.1 -0.05
0.5625 0.1 -0.05
0.575 0.1 -0.05
0.5875 0.1 -0.05
0.6 0.1 -0.05
0.0 0.1125 -0.05
0.0125 0.1125 -0.05
0.025 0.1125 -0.05
0.0375 0.1125 -0.05
0.05 0.1125 -0.05
0.0625 0.1125 -0.05
0.075 0.1125 -0.05
0.0875 0.1125 -0.05
0.1 0.1125 -0.05
0.1125 0.1125 -0.05
0.125 0.1125 -0.05
0.1375 0.1125 -0.05
0.15 0.1125 -0.05
0.1625 0.1125 -0.05
0.175 0.1125 -0.05
0.1875 0.1125 -0.05
0.2 0.1125 -0.05
0.2125 0.1125 -0.05
0.225 0.1125 -0.05
0.2375 0.1125 -0.05
0.25 0.1125 -0.05
0.2625 0.1125 -0.05
0.275 0.1125 -0.05
0.2875 0.1125 -0.05
0.3 0.1125 -0.05
0.3125 0.1125 -0.05
0.325 0.1125 -0.05
0.3375 0.1125 -0.05
0.35 0.1125 -0.05
0.3625 0.1125 -0.05
0.375 0.1125 -0.05
0.3875 0.1125 -0.05
0.4 0.1125 -0.05
0.4125 0.1125 -0.05
0.425 0.1125 -0.05
0.4375 0.1125 -0.05
0.45 0.1125 -0.05
0.4625 0.1125 -0.05
0.475 0.1125 -0.05
0.4875 0.1125 -0.05
0.5 0.1125 -0.05
0.5125 0.1125 -0.05
0.525 0.1125 -0.05
0.5375 0.1125 -0.05
0.55 0.1125 -0.05
0.5625 0.1125 -0.05
0.575 0.1125 -0.05
0.5875 0.1125 -0.05
0.6 0.1125 -0.05
0.0 0.125 -0.05
0.0125 0.125 -0.05
0.025 0.125 -0.05
0.0375 0.125 -0.05
0.05 0.125 -0.05
0.0625 0.125 -0.05
0.075 0.125 -0.05
0.0875 0.125 -0.05
0.1 0.125 -0.05
0.1125 0.125 -0.05
0.125 0.125 -0.05
0.1375 0.125 -0.05
0.15 0.125 -0.05
0.1625 0.125 -0.05
0.175 0.125 -0.05
0.1875 0.125 -0.05
0.2 0.125 -0.05
0.2125 0.125 -0.05
0.225 0.125 -0.05
0.2375 0.125 -0.05
0.25 0.125 -0.05
0.2625 0.125 -0.05
0.275 0.125 -0.05
0.2875 0.125 -0.05
0.3 0.125 -0.05
0.3125 0.125 -0.05
0.325 0.125 -0.05
0.3375 0.125 -0.05
0.35 0.125 -0.05
0.3625 0.125 -0.05
0.375 0.125 -0.05
0.3875 0.125 -0.05
0.4 0.125 -0.05
0.4125 0.125 -0.05
0.425 0.125 -0.05
0.4375 0.125 -0.05
0.45 0.125 -0.05
0.4625 0.125 -0.05
0.475 0.125 -0.05
0.4875 0.125 -0.05
0.5 0.125 -0.05
0.5125 0.125 -0.05
0.525 0.125 -0.05
0.5375 0.125 -0.05
0.55 0.125 -0.05
0.5625 0.125 -0.05
0.575 0.125 -0.05
0.5875 0.125 -0.05
0.6 0.125 -0.05
0.0 0.1375 -0.05
0.0125 0.1375 -0.05
0.025 0.1375 -0.05
0.0375 0.1375 -0.05
0.05 0.1375 -0.05
0.0625 0.1375 -0.05
0.075 0.1375 -0.05
0.0875 0.1375 -0.05
[...]
CELL_DATA 16128
SCALARS P float 1
LOOKUP_TABLE default
100000.00000006007
99999.9999998355
100000.0000004452
99999.99999878998
100000.00000328358
99999.99999108455
100000.00002419583
99999.99993433492
100000.00017817179
99999.99951662862
100000.00131112643
99999.99644426582
100000.00964112682
99999.97386431835
100000.07083325295
99999.80807892077
100000.5198347319
99998.59260744725
100003.8074078785
99989.72882175515
100027.19517212689
99939.89701407727
99854.1284142437
123413.80850061397
274645.99066813034
572922.2644564449
859016.9440539717
999018.8035261034
1.0386588629982522e6
1.0535835107606966e6
1.0653462867159033e6
1.0765274716597786e6
1.087283292577318e6
1.0976000188508895e6
1.1074644878346245e6
1.1168651521533807e6
1.1257873204921787e6
1.1342115606483172e6
1.1421101748539705e6
1.1494539576608979e6
1.1561918377286748e6
1.1623123853457132e6
1.1676666386101698e6
1.1724972474970967e6
1.1758813351292843e6
1.1803576863761558e6
1.1781872503509417e6
1.192153525442936e6
100000.00000005943
99999.99999983713
100000.00000044057
99999.99999880217
100000.00000325122
99999.99999117009
100000.00002397186
99999.99993492106
100000.0001766426
99999.99952060975
100000.0013007749
99999.99647118087
100000.0095710295
99999.97404750624
100000.07035229358
99999.80934658217
100000.51649841662
99998.60124786304
100003.78611612086
99989.7747182018
100027.12679026478
99939.98870654576
99848.5087314828
122868.28719888815
273183.54911370255
572502.7062668626
862175.1455365617
1.005460213499661e6
1.0466553197886281e6
1.062265999413688e6
1.0744098457174278e6
1.0858482346163953e6
1.0968145028344437e6
1.1073314196477889e6
1.1174019161790311e6
1.1270200712557242e6
1.1361714382217983e6
1.1448338641727935e6
1.152975020036562e6
1.1605594689784115e6
1.16752857241779e6
1.1738615837692693e6
1.1793997313593593e6
1.1843732872081245e6
1.1878496860404285e6
1.192366513949478e6
1.1901227322600635e6
1.2042940898552341e6
100000.0000000579
99999.99999984156
100000.00000042909
99999.99999883225
100000.00000317168
99999.99999137959
100000.00002342217
99999.99993635727
100000.00017291188
99999.99953024335
100000.00127608771
99999.9965338513
100000.0094138547
99999.97443539611
100000.06941613385
99999.81153389791
100000.5116381256
99998.61116132815
100003.76908154215
99989.79210955223
100027.1467230213
99940.11822300346
99835.57908716616
121565.44655006129
268355.53679702774
565238.7032569748
855909.9466317089
1.0013669222633501e6
1.0433623376706216e6
1.0589757572746465e6
1.07098243850028e6
1.0822638564721658e6
1.093062491477889e6
1.1033999869880404e6
1.1132789751271314e6
1.1226944349224227e6
1.131633635838051e6
1.1400766955312602e6
1.147994157851584e6
1.1553538301826573e6
1.1621016555942579e6
1.1682205448157818e6
1.173561451616709e6
1.1783516982639958e6
1.1816915024804843e6
1.1860694738923511e6
1.1837575385557201e6
1.198119681457966e6
100000.00000005549
99999.99999984846
100000.0000004111
99999.99999888038
100000.00000304396
99999.99999171885
100000.00002252444
99999.99993872491
100000.00016669162
99999.99954651002
100000.00123377853
99999.99664319515
100000.00913342042
99999.97514800618
100000.06762562621
99999.81597086716
100000.50082923274
99998.63694181247
100003.70914651209
99989.92719220543
100026.84198125874
99941.07865426611
99820.5953104
119586.9395036795
260810.49071197852
554156.6480619754
847438.4002812969
997493.3096708634
1.0414648703235695e6
1.057466283854638e6
1.0695330982636367e6
1.0808137024359144e6
1.0915908224350624e6
1.1018973590266854e6
1.1117425517276619e6
1.1211261574137998e6
1.1300391539115137e6
1.1384646191681342e6
1.1463755826853788e6
1.1537414508793405e6
1.1605098038091734e6
1.1666618337857001e6
1.1720516178353676e6
1.1768909407532073e6
1.1803028985406659e6
1.1847103145740512e6
1.1824198058634265e6
1.1971555496826924e6
100000.00000005198
99999.99999985777
100000.0000003859
99999.9999989482
100000.00000286182
99999.99999220691
100000.00002121905
99999.99994221024
100000.00015740906
99999.99957116645
100000.00116848068
99999.99681554492
100000.0086802282
99999.97633462558
100000.06453337983
99999.82398627272
100000.48017522959
99998.68981077528
100003.57480584165
99990.26523186728
100026.00040164182
99943.12023778164
99810.99610912186
117083.43933459824
250771.53790832596
539085.6823304653
835703.8143106952
991982.9779941448
1.038608381677674e6
1.0550082990804818e6
1.0670227945575991e6
1.0781882730085668e6
1.0888346648691816e6
1.0990014516829574e6
1.1087009622156008e6
1.1179356696214736e6
1.1266991606373684e6
1.134977014954814e6
1.1427448112355494e6
1.1499740347304882e6
1.1566150798822744e6
1.1626488487821692e6
1.1679361361229427e6
1.172675094008994e6
1.1760232024294324e6
1.1803369393442972e6
1.177977184118472e6
1.1931226844365096e6
100000.00000004751
99999.99999987007
100000.00000035317
99999.99999903693
100000.0000026211
99999.99999285828
100000.00001945878
99999.99994696293
100000.00014459326
99999.9996056794
100000.00107567184
99999.9970647243
100000.00801237769
99999.97812118591
100000.05976420475
99999.83668790013
100000.44643470741
99998.77917425503
100003.33894270322
99990.88407675507
100024.40501979574
99946.65170074317
99812.50106754388
114244.79246381202
238549.61604570987
520104.5482496956
820561.7513565833
984870.9030947242
1.0351161069303874e6
1.0520989852187391e6
1.0640605348325782e6
1.0750877483041363e6
1.085579008509378e6
1.0955821262090276e6
1.1051128836471858e6
1.1141770033814246e6
1.122771355590551e6
1.130884757034559e6
1.1384960855012229e6
1.1455795564695385e6
1.1520889415835466e6
1.1580049163493263e6
1.1631951802805325e6
1.1678427430370676e6
1.1711400460215006e6
1.1753757906978272e6
1.17294634921374e6
1.188622485757389e6
100000.00000004223
99999.9999998846
100000.00000031319
99999.99999914666
100000.00000232243
99999.99999367303
100000.00001723776
99999.9999530153
100000.00012810751
99999.9996505641
100000.00095353305
99999.99739689025
100000.00710962027
99999.98057287242
100000.0531115677
99999.85472246446
100000.39759908056
99998.91124173485
100002.9823929061
99991.8429170033
100021.87631833201
99952.13239924975
99827.31472387935
111280.56775188843
224531.63849035662
497332.54259748553
801733.0601542493
975854.5350116532
1.0308320089201145e6
1.0486273068778184e6
1.0605263410156681e6
1.0713713540305416e6
1.0816588650413735e6
1.0914472298355724e6
1.100755274096531e6
1.1095916246191827e6
1.117956301555055e6
1.1258414077547507e6
1.1332293495882987e6
1.1400974907659667e6
1.14640367225802e6
1.1521293217228123e6
1.1571506868968187e6
1.1616376640307377e6
1.1648214084574005e6
1.1689286562273072e6
1.1663768137859404e6
1.1826928855343293e6
100000.00000003609
99999.9999999016
100000.00000026682
99999.9999992739
100000.00000197365
99999.99999463042
100000.00001461036
99999.99996022714
100000.00010831055
99999.99970491331
100000.00080431758
99999.99780657222
100000.0059848116
99999.9836609902
100000.04463399855
99999.87799190033
100000.33374244485
99999.08642218287
100002.50210599545
99993.15631376892
100018.35345418278
99959.85749351063
99853.3650389448
108401.68118691456
209180.79739311285
470964.4164978834
778934.813751886
964611.166322906
1.0256480322880244e6
1.0445828101177424e6
1.0564339139069156e6
1.0670606382623778e6
1.0771003559381156e6
1.0866263006009553e6
1.095660265986083e6
1.104213488350407e6
1.1122889892609047e6
1.119882187352188e6
1.126979253978905e6
1.133561209471208e6
1.1395907968671892e6
1.145051546527212e6
1.1498300355777955e6
1.154085965471157e6
1.1570919421245654e6
1.1610208919402442e6
1.1582887334731524e6
1.1753886186144345e6
100000.00000002951
99999.99999991983
100000.00000021645
99999.99999941302
100000.00000159063
99999.99999568632
100000.00001169815
99999.99996826309
100000.000086127
99999.99976618052
100000.00063503248
99999.9982745333
100000.00469062114
99999.98724180073
100000.0347221542
99999.9054398975
100000.25770291738
99999.29714977907
100001.91804970086
99994.77246405673
100013.96168676224
99969.7369261971
99885.01572375953
105799.42706506641
193032.4839098138
441291.505824177
751883.4085264403
950742.8080464345
1.0194109889824194e6
1.0399343785082651e6
1.0517763576489277e6
1.0621501133183655e6
1.0718948046277966e6
1.0811055609083301e6
1.0898071267681874e6
1.0980126844660195e6
1.1057276112616074e6
1.112950100319853e6
1.1196697001064538e6
1.125870958747805e6
1.1315216922836641e6
1.1366083624031832e6
1.14102910222279e6
1.1449367325037809e6
1.1476485305020988e6
1.1512966818124377e6
1.1482744933871431e6
1.166320881007204e6
100000.00000002266
99999.9999999389
100000.00000016476
99999.99999955588
100000.00000119624
99999.9999967767
100000.00000868135
99999.9999766143
100000.00006299307
99999.99983031217
100000.00045711455
99999.99876850509
100000.00331807278
99999.99105865984
100000.02409920521
99999.93503036925
100000.17520725682
99999.52733717892
100001.27533468086
99996.56543603897
100009.04117026087
99981.1341612197
99915.19560898567
103623.45487552496
176683.45717147418
408729.0313549714
720325.1689109593
933773.8887733562
1.011919271407725e6
1.0346450168617626e6
1.0465531883180563e6
1.056643597898511e6
1.066044214187411e6
1.0748832272358036e6
1.0831885598635855e6
1.090974302303408e6
1.098246993460653e6
1.1050064074442133e6
1.1112443772871105e6
1.1169482018372798e6
1.122090499449223e6
1.1266615885156645e6
1.1305731607540224e6
1.1339768232352936e6
1.1362404570205351e6
1.1394739414415362e6
1.1360219770595864e6
1.15523616447639e6
100000.00000001628
99999.99999995681
100000.00000011534
99999.99999969306
100000.00000081713
99999.99999782596
100000.00000577641
99999.99998466398
100000.00004066821
99999.99989228313
100000.00028493052
99999.99924738612
100000.00198482914
99999.99477451619
100000.01373118622
99999.963993168
100000.0942022365
99999.75417987125
100000.63939817753
99998.34776546278
100004.11766853074
99992.8485734035
99938.18755116011
101962.28990875522
160770.07684509526
373841.7557344018
684077.1889780785
913148.4931148853
1.0029019388265627e6
1.0286618501859395e6
1.0407652110182333e6
1.050549373443951e6
1.0595554209589937e6
1.0679622126736303e6
1.0758015743461326e6
1.083086954422413e6
1.0898240031075804e6
1.0960116753800202e6
1.101641308641437e6
1.1066997894861908e6
1.1111608427892553e6
1.1150146515944107e6
1.1181816664218425e6
1.1208096318454386e6
1.1223146549010722e6
1.1248060060555355e6
1.120566813535096e6
1.141124838094449e6
100000.00000001045
99999.99999997292
100000.00000007084
99999.99999981537
100000.00000047959
99999.9999987589
100000.00000319952
99999.99999179223
100000.00002093491
99999.9999469633
100000.00013326145
99999.99966852734
100000.0008141117
99999.99803289445
100000.00465071994
99999.9893331746
100000.02338612825
99999.95238584744
100000.0838518778
99999.90520843673
99999.80665985856
100003.30676381722
99951.85668240693
100831.48833034343
145932.29451872758
337363.1045939136
643080.3953666567
888238.8675512016
991996.2808819888
1.0219061013263954e6
1.0344131283667964e6
1.0438815639266726e6
1.0524427576451013e6
1.0603539506623503e6
1.067652685274093e6
1.0743497446710155e6
1.0804469565311433e6
1.085938894511809e6
1.0908122615350396e6
1.0950490696243702e6
1.0986199039254982e6
1.1015121499070092e6
1.1036549681195838e6
1.105202090969832e6
1.1056331094535787e6
1.1070975396405063e6
1.1017854184812086e6
1.1241102030097905e6
100000.00000000557
99999.99999998636
100000.00000003439
99999.99999991554
100000.00000020476
99999.99999951365
100000.00000112619
99999.99999749268
100000.00000525315
99999.9999901356
100000.00001431096
99999.99999655063
99999.99990868424
100000.00053468667
99999.99773018868
100000.00850065192
99999.97022693719
100000.10003498531
99999.67316559341
100001.0478619286
99996.66466516172
100010.95548425488
99958.18576321317
100174.69344744387
132761.31612237034
300201.5458235797
597462.8672547673
858369.83234766
978723.0019755706
1.0142583588057252e6
1.0274940359680469e6
1.0366600579279854e6
1.0447290491662719e6
1.0520800715499993e6
1.0587602835038912e6
1.064775280014178e6
1.070118798171164e6
1.0747751836775618e6
1.0787184314718393e6
1.0819142640361853e6
1.0843133637220562e6
1.0858745922766672e6
1.0864991278677927e6
1.0862880899932836e6
1.0847009923182935e6
1.0838883646830223e6
1.075904107230755e6
1.0994227192123565e6
100000.00000000185
99999.99999999633
100000.00000000725
99999.99999998928
100000.00000000536
100000.00000005479
99999.99999965841
100000.00000147273
99999.99999446241
100000.00001938538
99999.99993504962
100000.0002112773
99999.999327135
100000.00210924995
99999.9934682447
100000.02003341459
99999.93902762706
100000.1844169705
99999.44503099663
100001.6634987073
99995.02816301696
100014.75014843956
99961.76145798754
99880.66444801248
121732.47775948707
263427.1064914059
547608.7747359232
822865.5342739121
962462.133548685
1.0055382015594819e6
1.0199958732610751e6
1.0289099768998116e6
1.0364466235990474e6
1.0431744172678867e6
1.049158018303382e6
1.0543953695623851e6
1.0588671123437784e6
1.0625405172167723e6
1.0653679449862468e6
1.0672878066330452e6
1.0682201056540092e6
1.0680873907745539e6
1.0667604246389258e6
1.0643305529284468e6
1.0603204123280644e6
1.0570060139940048e6
1.0464010921508261e6
1.0727489403854073e6
99999.99999999952
100000.00000000274
99999.99999999012
100000.00000003533
99999.99999988273
100000.00000037823
99999.99999880636
100000.00000370882
99999.99998861761
100000.00003458714
99999.99989574177
100000.00031219547
99999.99907028674
100000.00275588267
99999.99186278072
100000.02394726436
99999.92972164661
100000.20576152232
99999.39875793605
100001.75384374861
99994.89824684076
100014.55586363684
99967.0884946207
99814.14112732235
113132.31043881277
228230.7049041781
494224.21495172795
781124.2355460408
942434.8558149423
995476.4655238519
1.011888469856773e6
1.0206599975352659e6
1.027637660440719e6
1.0336842106926461e6
1.0388966230403366e6
1.0432632618689258e6
1.0467454773237326e6
1.0492836501853028e6
1.0507926876095466e6
1.0511580129595918e6
1.0502190969427323e6
1.0477781599020566e6
1.0435093988477786e6
1.0371598154436172e6
1.0277023684687018e6
1.0165305921271506e6
994223.4657553376
1.0121762898683548e6
99999.99999999808
100000.00000000643
99999.99999998139
100000.0000000575
99999.99999982852
100000.00000051016
99999.99999849171
100000.00000443465
99999.99998702235
100000.0000378184
99999.99989019711
100000.00031776507
99999.99908308072
100000.00263884827
99999.99242356882
100000.0217057538
99999.9379379908
100000.17712824748
99999.49531913197
100001.43542498669
99995.93243877102
100011.23963130826
99976.25084682083
99851.63540006151
106999.03587557466
195849.83264315405
438387.0385452265
732724.2102045665
917699.7000166479
983678.7925969355
1.0031094151815658e6
1.0119388998408928e6
1.0183538237499063e6
1.0236709396237504e6
1.028046334302574e6
1.0314592813506747e6
1.0338466201226782e6
1.0351136516626291e6
1.0351257756043265e6
1.0337003146161169e6
1.0305854274320317e6
1.0254593095556599e6
1.0178536018540919e6
1.0073852304801699e6
993059.177106526
976591.5432382874
948876.1800617041
971913.5379560489
99999.99999999756
100000.00000000722
99999.99999997934
100000.00000006038
99999.99999982628
100000.00000049928
99999.99999857227
100000.00000406786
99999.99998844751
100000.0000327008
99999.99990772556
100000.00025957108
99999.99927206442
100000.00203503782
99999.99432901334
100000.01575038816
99999.95641019626
100000.12017736232
99999.67005475206
100000.90139872505
99997.55754210487
100006.38639356586
99988.02150413378
99908.76646364754
103103.00392483086
167455.57468716727
381564.5938612749
677559.0967475157
887176.1629349667
969580.7834721152
993542.4428986093
1.0027692280368524e6
1.0086543637013107e6
1.0132094260198596e6
1.0166959111270166e6
1.019088799105306e6
1.0202964229817436e6
1.0201797554218614e6
1.0185392085647073e6
1.0150934209968528e6
1.0094259673121277e6
1.0009234767505378e6
988555.0589288924
970741.9986178515
943797.6825102762
902832.1851402844
824376.5196757127
696198.2535587453
99999.99999999767
100000.00000000653
99999.99999998177
100000.00000005153
99999.9999998553
100000.00000040287
99999.99999888046
100000.0000030967
99999.99999146893
100000.0000233929
99999.99993616805
100000.00017322927
99999.9995327462
100000.0012515514
99999.9966748942
100000.00874868264
99999.97725290873
100000.0582681154
99999.85361532446
100000.35800662037
99999.16159891197
100001.74164803172
99999.11111665274
99948.09911091036
100989.44023740554
143999.41578736514
325581.19627895276
615992.897661859
849713.5662721246
952399.1145618218
982985.9187189577
993156.9150879743
998602.5489295883
1.00238584282058e6
1.0049512192692818e6
1.0062824611474801e6
1.0062599448061022e6
1.0046976119386873e6
1.0013312692478063e6
995777.5190308882
987463.2125532647
975524.2409837064
958527.0302720978
934250.6079271457
898158.2948444253
844328.9426428993
753344.8911694267
617127.0307770594
99999.99999999811
100000.00000000505
99999.99999998619
100000.00000003763
99999.99999989802
100000.00000027499
99999.99999926216
100000.00000196368
99999.99999481431
100000.0000135568
99999.99996497347
100000.00008917083
99999.99977724357
100000.00054253312
99999.99872516982
100000.00283579073
99999.9942613307
100000.00946692112
99999.9932853904
99999.95936035526
100000.29422178822
99998.59324484489
100006.37336278446
99967.05889874126
100085.8664260981
126031.98897904465
272517.20608249225
549011.5066540923
804224.2178869626
931089.4217607547
971109.1144693635
983075.1059856198
988259.5796170651
991293.5251445859
992930.0272684243
993188.3419608745
991925.9545001197
988920.0945934604
983849.9092166803
976255.5693147068
965459.3305295958
950461.6842346743
929682.0239986171
900800.5816103228
859585.4882918068
801113.4048892013
712349.7276679709
591813.806099235
99999.99999999875
100000.00000000326
99999.99999999115
100000.00000002333
99999.9999999395
100000.00000015533
99999.99999960545
100000.000000982
99999.99999760841
100000.00000563744
99999.9999873205
100000.00002639914
99999.99995271147
100000.00005462627
100000.00007392195
99999.99913202094
100000.00435422004
99999.98221325365
100000.06606403983
99999.7677510366
100000.78827432844
99997.38248063138
100008.55297693635
99976.78103061934
99844.54043301832
113539.51034396332
224527.2021083367
478331.00451426615
749891.8026559934
904329.3841565334
957394.3182163156
972439.5959949426
977675.1995599564
980026.7881623848
980754.5674804084
979959.09910615
977490.7184633403
973100.7257409224
966432.5298452919
956983.8048034545
944035.2381737041
926564.1006843842
903040.4488237972
871361.2662089791
828060.2322801396
769590.1510127404
687976.6907060586
584801.5508766281
99999.99999999937
100000.00000000202
99999.9999999952
100000.00000001153
99999.99999997164
100000.00000006576
99999.99999985282
100000.00000030319
99999.99999945826
100000.00000063708
100000.0000007102
99999.99999095034
100000.00004525355
99999.99981732147
100000.00066816232
99999.9976926035
100000.00767079406
99999.97518795347
100000.07859171658
99999.75521970869
100000.75175356762
99997.7214259859
100006.68808163176
99985.88918136583
99862.34638390502
105883.22127495651
183577.0311770992
406413.4657064211
686448.0053676033
870554.570741335
941064.9451493438
961072.1224350382
966873.7615133347
968673.3943147674
968543.908185251
966742.3045998182
963137.7788723791
957469.7402751178
949367.8153230342
938321.4490188388
923623.5695283674
904309.3156595024
879014.6457756648
845984.3902737786
802589.996471427
746467.9185617261
673051.3420244042
584714.2567913588
99999.99999999964
100000.00000000077
99999.99999999795
100000.00000000383
99999.99999999217
100000.00000001179
99999.99999999435
99999.99999993911
100000.00000037928
99999.9999983663
100000.00000611655
99999.999978742
100000.00007045578
99999.99977419816
100000.00070525138
99999.99784324395
100000.00647606787
99999.98087778439
100000.05555430891
99999.84125613267
100000.44547325172
99998.77888337073
100003.14281809943
99995.45900216258
99924.33443557042
101922.2508357554
151113.1610010238
336345.92024804273
614485.839422445
828086.2086520627
921007.8035749908
948647.3436473216
955833.6303152803
957305.2629491792
956405.9113583581
953672.5502054269
949027.7626739069
942218.4007001172
932879.6703970375