# vtk DataFile Version 2.0
JuliaCFD
ASCII
DATASET UNSTRUCTURED_GRID

POINTS 32898 float
0.0 0.0 -0.05
0.0125 0.0 -0.05
0.025 0.0 -0.05
0.0375 0.0 -0.05
0.05 0.0 -0.05
0.0625 0.0 -0.05
0.075 0.0 -0.05
0.0875 0.0 -0.05
0.1 0.0 -0.05
0.1125 0.0 -0.05
0.125 0.0 -0.05
0.1375 0.0 -0.05
0.15 0.0 -0.05
0.1625 0.0 -0.05
0.175 0.0 -0.05
0.1875 0.0 -0.05
0.2 0.0 -0.05
0.2125 0.0 -0.05
0.225 0.0 -0.05
0.2375 0.0 -0.05
0.25 0.0 -0.05
0.2625 0.0 -0.05
0.275 0.0 -0.05
0.2875 0.0 -0.05
0.3 0.0 -0.05
0.3125 0.0 -0.05
0.325 0.0 -0.05
0.3375 0.0 -0.05
0.35 0.0 -0.05
0.3625 0.0 -0.05
0.375 0.0 -0.05
0.3875 0.0 -0.05
0.4 0.0 -0.05
0.4125 0.0 -0.05
0.425 0.0 -0.05
0.4375 0.0 -0.05
0.45 0.0 -0.05
0.4625 0.0 -0.05
0.475 0.0 -0.05
0.4875 0.0 -0.05
0.5 0.0 -0.05
0.5125 0.0 -0.05
0.525 0.0 -0.05
0.5375 0.0 -0.05
0.55 0.0 -0.05
0.5625 0.0 -0.05
0.575 0.0 -0.05
0.5875 0.0 -0.05
0.6 0.0 -0.05
0.0 0.0125 -0.05
0.0125 0.0125 -0.05
0.025 0.0125 -0.05
0.0375 0.0125 -0.05
0.05 0.0125 -0.05
0.0625 0.0125 -0.05
0.075 0.0125 -0.05
0.0875 0.0125 -0.05
0.1 0.0125 -0.05
0.1125 0.0125 -0.05
0.125 0.0125 -0.05
0.1375 0.0125 -0.05
0.15 0.0125 -0.05
0.1625 0.0125 -0.05
0.175 0.0125 -0.05
0.1875 0.0125 -0.05
0.2 0.0125 -0.05
0.2125 0.0125 -0.05
0.225 0.0125 -0.05
0.2375 0.0125 -0.05
0.25 0.0125 -0.05
0.2625 0.0125 -0.05
0.275 0.0125 -0.05
0.2875 0.0125 -0.05
0.3 0.0125 -0.05
0.3125 0.0125 -0.05
0.325 0.0125 -0.05
0.3375 0.0125 -0.05
0.35 0.0125 -0.05
0.3625 0.0125 -0.05
0.375 0.0125 -0.05
0.3875 0.0125 -0.05
0.4 0.0125 -0.05
0.4125 0.0125 -0.05
0.425 0.0125 -0.05
0.4375 0.0125 -0.05
0.45 0.0125 -0.05
0.4625 0.0125 -0.05
0.475 0.0125 -0.05
0.4875 0.0125 -0.05
0.5 0.0125 -0.05
0.5125 0.0125 -0.05
0.525 0.0125 -0.05
0.5375 0.0125 -0.05
0.55 0.0125 -0.05
0.5625 0.0125 -0.05
0.575 0.0125 -0.05
0.5875 0.0125 -0.05
0.6 0.0125 -0.05
0.0 0.025 -0.05
0.0125 0.025 -0.05
0.025 0.025 -0.05
0.0375 0.025 -0.05
0.05 0.025 -0.05
0.0625 0.025 -0.05
0.075 0.025 -0.05
0.0875 0.025 -0.05
0.1 0.025 -0.05
0.1125 0.025 -0.05
0.125 0.025 -0.05
0.1375 0.025 -0.05
0.15 0.025 -0.05
0.1625 0.025 -0.05
0.175 0.025 -0.05
0.1875 0.025 -0.05
0.2 0.025 -0.05
0.2125 0.025 -0.05
0.225 0.025 -0.05
0.2375 0.025 -0.05
0.25 0.025 -0.05
0.2625 0.025 -0.05
0.275 0.025 -0.05
0.2875 0.025 -0.05
0.3 0.025 -0.05
0.3125 0.025 -0.05
0.325 0.025 -0.05
0.3375 0.025 -0.05
0.35 0.025 -0.05
0.3625 0.025 -0.05
0.375 0.025 -0.05
0.3875 0.025 -0.05
0.4 0.025 -0.05
0.4125 0.025 -0.05
0.425 0.025 -0.05
0.4375 0.025 -0.05
0.45 0.025 -0.05
0.4625 0.025 -0.05
0.475 0.025 -0.05
0.4875 0.025 -0.05
0.5 0.025 -0.05
0.5125 0.025 -0.05
0.525 0.025 -0.05
0.5375 0.025 -0.05
0.55 0.025 -0.05
0.5625 0.025 -0.05
0.575 0.025 -0.05
0.5875 0.025 -0.05
0.6 0.025 -0.05
0.0 0.0375 -0.05
0.0125 0.0375 -0.05
0.025 0.0375 -0.05
0.0375 0.0375 -0.05
0.05 0.0375 -0.05
0.0625 0.0375 -0.05
0.075 0.0375 -0.05
0.0875 0.0375 -0.05
0.1 0.0375 -0.05
0.1125 0.0375 -0.05
0.125 0.0375 -0.05
0.1375 0.0375 -0.05
0.15 0.0375 -0.05
0.1625 0.0375 -0.05
0.175 0.0375 -0.05
0.1875 0.0375 -0.05
0.2 0.0375 -0.05
0.2125 0.0375 -0.05
0.225 0.0375 -0.05
0.2375 0.0375 -0.05
0.25 0.0375 -0.05
0.2625 0.0375 -0.05
0.275 0.0375 -0.05
0.2875 0.0375 -0.05
0.3 0.0375 -0.05
0.3125 0.0375 -0.05
0.325 0.0375 -0.05
0.3375 0.0375 -0.05
0.35 0.0375 -0.05
0.3625 0.0375 -0.05
0.375 0.0375 -0.05
0.3875 0.0375 -0.05
0.4 0.0375 -0.05
0.4125 0.0375 -0.05
0.425 0.0375 -0.05
0.4375 0.0375 -0.05
0.45 0.0375 -0.05
0.4625 0.0375 -0.05
0.475 0.0375 -0.05
0.4875 0.0375 -0.05
0.5 0.0375 -0.05
0.5125 0.0375 -0.05
0.525 0.0375 -0.05
0.5375 0.0375 -0.05
0.55 0.0375 -0.05
0.5625 0.0375 -0.05
0.575 0.0375 -0.05
0.5875 0.0375 -0.05
0.6 0.0375 -0.05
0.0 0.05 -0.05
0.0125 0.05 -0.05
0.025 0.05 -0.05
0.0375 0.05 -0.05
0.05 0.05 -0.05
0.0625 0.05 -0.05
0.075 0.05 -0.05
0.0875 0.05 -0.05
0.1 0.05 -0.05
0.1125 0.05 -0.05
0.125 0.05 -0.05
0.1375 0.05 -0.05
0.15 0.05 -0.05
0.1625 0.05 -0.05
0.175 0.05 -0.05
0.1875 0.05 -0.05
0.2 0.05 -0.05
0.2125 0.05 -0.05
0.225 0.05 -0.05
0.2375 0.05 -0.05
0.25 0.05 -0.05
0.2625 0.05 -0.05
0.275 0.05 -0.05
0.2875 0.05 -0.05
0.3 0.05 -0.05
0.3125 0.05 -0.05
0.325 0.05 -0.05
0.3375 0.05 -0.05
0.35 0.05 -0.05
0.3625 0.05 -0.05
0.375 0.05 -0.05
0.3875 0.05 -0.05
0.4 0.05 -0.05
0.4125 0.05 -0.05
0.425 0.05 -0.05
0.4375 0.05 -0.05
0.45 0.05 -0.05
0.4625 0.05 -0.05
0.475 0.05 -0.05
0.4875 0.05 -0.05
0.5 0.05 -0.05
0.5125 0.05 -0.05
0.525 0.05 -0.05
0.5375 0.05 -0.05
0.55 0.05 -0.05
0.5625 0.05 -0.05
0.575 0.05 -0.05
0.5875 0.05 -0.05
0.6 0.05 -0.05
0.0 0.0625 -0.05
0.0125 0.0625 -0.05
0.025 0.0625 -0.05
0.0375 0.0625 -0.05
0.05 0.0625 -0.05
0.0625 0.0625 -0.05
0.075 0.0625 -0.05
0.0875 0.0625 -0.05
0.1 0.0625 -0.05
0.1125 0.0625 -0.05
0.125 0.0625 -0.05
0.1375 0.0625 -0.05
0.15 0.0625 -0.05
0.1625 0.0625 -0.05
0.175 0.0625 -0.05
0.1875 0.0625 -0.05
0.2 0.0625 -0.05
0.2125 0.0625 -0.05
0.225 0.0625 -0.05
0.2375 0.0625 -0.05
0.25 0.0625 -0.05
0.2625 0.0625 -0.05
0.275 0.0625 -0.05
0.2875 0.0625 -0.05
0.3 0.0625 -0.05
0.3125 0.0625 -0.05
0.325 0.0625 -0.05
0.3375 0.0625 -0.05
0.35 0.0625 -0.05
0.3625 0.0625 -0.05
0.375 0.0625 -0.05
0.3875 0.0625 -0.05
0.4 0.0625 -0.05
0.4125 0.0625 -0.05
0.425 0.0625 -0.05
0.4375 0.0625 -0.05
0.45 0.0625 -0.05
0.4625 0.0625 -0.05
0.475 0.0625 -0.05
0.4875 0.0625 -0.05
0.5 0.0625 -0.05
0.5125 0.0625 -0.05
0.525 0.0625 -0.05
0.5375 0.0625 -0.05
0.55 0.0625 -0.05
0.5625 0.0625 -0.05
0.575 0.0625 -0.05
0.5875 0.0625 -0.05
0.6 0.0625 -0.05
0.0 0.075 -0.05
0.0125 0.075 -0.05
0.025 0.075 -0.05
0.0375 0.075 -0.05
0.05 0.075 -0.05
0.0625 0.075 -0.05
0.075 0.075 -0.05
0.0875 0.075 -0.05
0.1 0.075 -0.05
0.1125 0.075 -0.05
0.125 0.075 -0.05
0.1375 0.075 -0.05
0.15 0.075 -0.05
0.1625 0.075 -0.05
0.175 0.075 -0.05
0.1875 0.075 -0.05
0.2 0.075 -0.05
0.2125 0.075 -0.05
0.225 0.075 -0.05
0.2375 0.075 -0.05
0.25 0.075 -0.05
0.2625 0.075 -0.05
0.275 0.075 -0.05
0.2875 0.075 -0.05
0.3 0.075 -0.05
0.3125 0.075 -0.05
0.325 0.075 -0.05
0.3375 0.075 -0.05
0.35 0.075 -0.05
0.3625 0.075 -0.05
0.375 0.075 -0.05
0.3875 0.075 -0.05
0.4 0.075 -0.05
0.4125 0.075 -0.05
0.425 0.075 -0.05
0.4375 0.075 -0.05
0.45 0.075 -0.05
0.4625 0.075 -0.05
0.475 0.075 -0.05
0.4875 0.075 -0.05
0.5 0.075 -0.05
0.5125 0.075 -0.05
0.525 0.075 -0.05
0.5375 0.075 -0.05
0.55 0.075 -0.05
0.5625 0.075 -0.05
0.575 0.075 -0.05
0.5875 0.075 -0.05
0.6 0.075 -0.05
0.0 0.0875 -0.05
0.0125 0.0875 -0.05
0.025 0.0875 -0.05
0.0375 0.0875 -0.05
0.05 0.0875 -0.05
0.0625 0.0875 -0.05
0.075 0.0875 -0.05
0.0875 0.0875 -0.05
0.1 0.0875 -0.05
0.1125 0.0875 -0.05
0.125 0.0875 -0.05
0.1375 0.0875 -0.05
0.15 0.0875 -0.05
0.1625 0.0875 -0.05
0.175 0.0875 -0.05
0.1875 0.0875 -0.05
0.2 0.0875 -0.05
0.2125 0.0875 -0.05
0.225 0.0875 -0.05
0.2375 0.0875 -0.05
0.25 0.0875 -0.05
0.2625 0.0875 -0.05
0.275 0.0875 -0.05
0.2875 0.0875 -0.05
0.3 0.0875 -0.05
0.3125 0.0875 -0.05
0.325 0.0875 -0.05
0.3375 0.0875 -0.05
0.35 0.0875 -0.05
0.3625 0.0875 -0.05
0.375 0.0875 -0.05
0.3875 0.0875 -0.05
0.4 0.0875 -0.05
0.4125 0.0875 -0.05
0.425 0.0875 -0.05
0.4375 0.0875 -0.05
0.45 0.0875 -0.05
0.4625 0.0875 -0.05
0.475 0.0875 -0.05
0.4875 0.0875 -0.05
0.5 0.0875 -0.05
0.5125 0.0875 -0.05
0.525 0.0875 -0.05
0.5375 0.0875 -0.05
0.55 0.0875 -0.05
0.5625 0.0875 -0.05
0.575 0.0875 -0.05
0.5875 0.0875 -0.05
0.6 0.0875 -0.05
0.0 0.1 -0.05
0.0125 0.1 -0.05
0.025 0.1 -0.05
0.0375 0.1 -0.05
0.05 0.1 -0.05
0.0625 0.1 -0.05
0.075 0.1 -0.05
0.0875 0.1 -0.05
0.1 0.1 -0.05
0.1125 0.1 -0.05
0.125 0.1 -0.05
0.1375 0.1 -0.05
0.15 0.1 -0.05
0.1625 0.1 -0.05
0.175 0.1 -0.05
0.1875 0.1 -0.05
0.2 0.1 -0.05
0.2125 0.1 -0.05
0.225 0.1 -0.05
0.2375 0.1 -0.05
0.25 0.1 -0.05
0.2625 0.1 -0.05
0.275 0.1 -0.05
0.2875 0.1 -0.05
0.3 0.1 -0.05
0.3125 0.1 -0.05
0.325 0.1 -0.05
0.3375 0.1 -0.05
0.35 0.1 -0.05
0.3625 0.1 -0.05
0.375 0.1 -0.05
0.3875 0.1 -0.05
0.4 0.1 -0.05
0.4125 0.1 -0.05
0.425 0.1 -0.05
0.4375 0.1 -0.05
0.45 0.1 -0.05
0.4625 0.1 -0.05
0.475 0.1 -0.05
0.4875 0.1 -0.05
0.5 0.1 -0.05
0.5125 0.1 -0.05
0.525 0.1 -0.05
0.5375 0.1 -0.05
0.55 0.1 -0.05
0.5625 0.1 -0.05
0.575 0.1 -0.05
0.5875 0.1 -0.05
0.6 0.1 -0.05
0.0 0.1125 -0.05
0.0125 0.1125 -0.05
0.025 0.1125 -0.05
0.0375 0.1125 -0.05
0.05 0.1125 -0.05
0.0625 0.1125 -0.05
0.075 0.1125 -0.05
0.0875 0.1125 -0.05
0.1 0.1125 -0.05
0.1125 0.1125 -0.05
0.125 0.1125 -0.05
0.1375 0.1125 -0.05
0.15 0.1125 -0.05
0.1625 0.1125 -0.05
0.175 0.1125 -0.05
0.1875 0.1125 -0.05
0.2 0.1125 -0.05
0.2125 0.1125 -0.05
0.225 0.1125 -0.05
0.2375 0.1125 -0.05
0.25 0.1125 -0.05
0.2625 0.1125 -0.05
0.275 0.1125 -0.05
0.2875 0.1125 -0.05
0.3 0.1125 -0.05
0.3125 0.1125 -0.05
0.325 0.1125 -0.05
0.3375 0.1125 -0.05
0.35 0.1125 -0.05
0.3625 0.1125 -0.05
0.375 0.1125 -0.05
0.3875 0.1125 -0.05
0.4 0.1125 -0.05
0.4125 0.1125 -0.05
0.425 0.1125 -0.05
0.4375 0.1125 -0.05
0.45 0.1125 -0.05
0.4625 0.1125 -0.05
0.475 0.1125 -0.05
0.4875 0.1125 -0.05
0.5 0.1125 -0.05
0.5125 0.1125 -0.05
0.525 0.1125 -0.05
0.5375 0.1125 -0.05
0.55 0.1125 -0.05
0.5625 0.1125 -0.05
0.575 0.1125 -0.05
0.5875 0.1125 -0.05
0.6 0.1125 -0.05
0.0 0.125 -0.05
0.0125 0.125 -0.05
0.025 0.125 -0.05
0.0375 0.125 -0.05
0.05 0.125 -0.05
0.0625 0.125 -0.05
0.075 0.125 -0.05
0.0875 0.125 -0.05
0.1 0.125 -0.05
0.1125 0.125 -0.05
0.125 0.125 -0.05
0.1375 0.125 -0.05
0.15 0.125 -0.05
0.1625 0.125 -0.05
0.175 0.125 -0.05
0.1875 0.125 -0.05
0.2 0.125 -0.05
0.2125 0.125 -0.05
0.225 0.125 -0.05
0.2375 0.125 -0.05
0.25 0.125 -0.05
0.2625 0.125 -0.05
0.275 0.125 -0.05
0.2875 0.125 -0.05
0.3 0.125 -0.05
0.3125 0.125 -0.05
0.325 0.125 -0.05
0.3375 0.125 -0.05
0.35 0.125 -0.05
0.3625 0.125 -0.05
0.375 0.125 -0.05
0.3875 0.125 -0.05
0.4 0.125 -0.05
0.4125 0.125 -0.05
0.425 0.125 -0.05
0.4375 0.125 -0.05
0.45 0.125 -0.05
0.4625 0.125 -0.05
0.475 0.125 -0.05
0.4875 0.125 -0.05
0.5 0.125 -0.05
0.5125 0.125 -0.05
0.525 0.125 -0.05
0.5375 0.125 -0.05
0.55 0.125 -0.05
0.5625 0.125 -0.05
0.575 0.125 -0.05
0.5875 0.125 -0.05
0.6 0.125 -0.05
0.0 0.1375 -0.05
0.0125 0.1375 -0.05
0.025 0.1375 -0.05
0.0375 0.1375 -0.05
0.05 0.1375 -0.05
0.0625 0.1375 -0.05
0.075 0.1375 -0.05
0.0875 0.1375 -0.05
[...]
CELL_DATA 16128
SCALARS P float 1
LOOKUP_TABLE default
100000.00000005105
100000.00000015824
100000.00000049669
100000.00000156286
100000.00000492224
100000.0000155021
100000.00004881347
100000.00015366111
100000.00048356933
100000.00152133897
100000.00478485248
100000.01504492213
100000.04729266632
100000.1486221539
100000.46694114753
100001.4666662067
100004.60563400989
100014.45859066439
100045.3736696177
100142.3009489152
100445.64698597195
101390.44616719027
104295.51335731137
112941.27299909368
136746.47268197555
192871.49937561728
298506.5518535017
453590.44814306794
632211.6112113635
795444.9238621267
916282.8134152478
992131.2916631444
1.0358611301010342e6
1.061625887137527e6
1.0787051818204804e6
1.0918342171924913e6
1.1030887703725072e6
1.113278807182243e6
1.1226809174068684e6
1.1313654912219702e6
1.1393278263273954e6
1.1465361979516265e6
1.1529484146664056e6
1.1585177363832016e6
1.1631956111714211e6
1.1669367593084478e6
1.1699367242737538e6
1.1920394322727015e6
100000.00000005066
100000.00000015719
100000.00000049308
100000.00000155144
100000.00000488572
100000.00001538578
100000.00004844039
100000.0001524665
100000.00047974514
100000.00150909794
100000.00474567585
100000.01491956477
100000.04689164825
100000.14733973319
100000.46284201075
100001.45357262096
100004.56385281745
100014.3254820818
100044.95073220403
100140.96342480062
100441.4549214695
101377.54674174753
104257.3566992764
112837.83151231731
136516.26122133067
192544.67181588532
298494.4130235133
454873.51339268003
636017.7649945893
802523.0387093711
926491.5447846511
1.004740572981144e6
1.0500917783799767e6
1.0769224677091956e6
1.094745631273674e6
1.1084533390401553e6
1.12020825381025e6
1.130861999052657e6
1.1407068159090313e6
1.1498141691853586e6
1.1581720134029994e6
1.1657362447359138e6
1.1724496035514525e6
1.178250127323604e6
1.183077644791043e6
1.186886368473812e6
1.1899578506332461e6
1.212499819683915e6
100000.00000004981
100000.00000015469
100000.00000048507
100000.00000152597
100000.00000480437
100000.00001512529
100000.00004760645
100000.00014979679
100000.00047119881
100000.00148174223
100000.00465812518
100000.01463940849
100000.04599534612
100000.14447293224
100000.45367572995
100001.4242780341
100004.4702911143
100014.02694772994
100043.99958285884
100137.9405564981
100431.89319456423
101347.6030023466
104165.67301418264
112571.15533456115
135823.58255650417
191074.3465653535
296085.44289820077
451854.9492783718
633130.4930048153
800465.9235699286
925512.9365445337
1.004655534503726e6
1.050566240205788e6
1.077674554588109e6
1.0955909724725399e6
1.1092827634496696e6
1.120958379056174e6
1.1314947380928074e6
1.1411975326076744e6
1.1501455181320573e6
1.158331133326244e6
1.1657139115747316e6
1.1722405879183107e6
1.1778542698834888e6
1.1825011426389436e6
1.1861468090784461e6
1.1892250392693384e6
1.2120149657754546e6
100000.0000000486
100000.00000015095
100000.00000047329
100000.0000014881
100000.00000468291
100000.00001473646
100000.00004636229
100000.00014581405
100000.00045845179
100000.0014409488
100000.00452759146
100000.01422176682
100000.04465928653
100000.14019951047
100000.4400099138
100001.38058834113
100004.3306649531
100013.58094710599
100042.57605653223
100133.4033497709
100417.47478867572
101302.11313107224
104024.72068773513
112153.31107454532
134705.47478540946
188594.39359896106
291763.3630179472
445936.31333822565
626631.5846417253
794567.7476092204
920837.7696860717
1.0011302401789047e6
1.0478016958553742e6
1.0753056484864196e6
1.0933794616329675e6
1.1070967352643649e6
1.1187314070722715e6
1.1291965250358204e6
1.1388173306823892e6
1.1476837078434334e6
1.1557951029658099e6
1.163115858869434e6
1.169595854042288e6
1.175179266523576e6
1.1798102744329192e6
1.1834556281820019e6
1.1867194677299494e6
1.2099497651840784e6
100000.00000004716
100000.00000014607
100000.0000004577
100000.00000143884
100000.00000452527
100000.00001423195
100000.00004474743
100000.00014064727
100000.00044192167
100000.00138806796
100000.00435843461
100000.01368070254
100000.04292877483
100000.13466518099
100000.42231219668
100001.32400014962
100004.14974736178
100013.00263848103
100040.72806316799
100127.50248898091
100398.67158031165
101242.54949214433
103839.06518015965
111598.10434346399
133200.44201866878
185199.97188894602
285743.4841595363
437559.03184430045
617297.0709307495
785978.4945785056
913937.406409262
995855.6093057068
1.0436103048710612e6
1.0716787977115673e6
1.089981820555463e6
1.1037478101925787e6
1.115344448654012e6
1.125734743655943e6
1.135269578327416e6
1.1440523490568532e6
1.1520900891015707e6
1.1593514580135262e6
1.165788172932651e6
1.171343689847368e6
1.1759590987077507e6
1.1796078943719785e6
1.1830913682942365e6
1.2068944049663513e6
100000.00000004527
100000.00000014016
100000.00000043906
100000.00000137936
100000.00000433532
100000.00001362446
100000.00004280498
100000.00013443548
100000.00042205874
100000.00132455742
100000.00415537549
100000.01303149963
100000.04085326522
100000.1280298628
100000.40109938066
100001.25618260597
100003.93292729087
100012.30942225318
100038.51184024934
100120.42010974952
100376.07503489018
101170.83269080709
103614.86156730539
110924.24591974763
131357.5677475069
180990.0503807231
278175.75497581734
426905.2298977631
605321.9052272831
774905.9596987753
905048.304064039
989104.6006618423
1.0382914817275614e6
1.0671017960503646e6
1.0856982815513643e6
1.0995177261078472e6
1.1110537681768748e6
1.1213355256261863e6
1.1307468558863746e6
1.1394078399842193e6
1.1473344813270457e6
1.1545004384276003e6
1.160859807731165e6
1.1663562637129258e6
1.1709302838632222e6
1.1745709859697463e6
1.1782978272459e6
1.2028142632468052e6
100000.00000004315
100000.00000013347
100000.00000041777
100000.00000131119
100000.00000411781
100000.00001292926
100000.00004058307
100000.00012733531
100000.00039937069
100000.00125206473
100000.00392375866
100000.01229149742
100000.03848901814
100000.12047615742
100000.37696441424
100001.17906268725
100003.6864749623
100011.52173986462
100035.99420416485
100112.375297673
100350.40514715013
101089.3219721606
103359.69482029122
110154.68914270605
129236.22175480973
176079.07532293917
269211.9507669705
414107.11442891846
590765.8679930846
761335.7598970345
894127.8312100868
980850.704995555
1.0318484818363156e6
1.061599648906667e6
1.0805624504754015e6
1.0944380239556225e6
1.1058817128369645e6
1.1160074334368568e6
1.1252408726268543e6
1.133722941420919e6
1.1414808518133361e6
1.1484949809284734e6
1.1547237277553037e6
1.1601136291276158e6
1.164608762402821e6
1.1682238158286344e6
1.1722165397629933e6
1.1976198062051164e6
100000.0000000407
100000.00000012605
100000.00000039417
100000.00000123605
100000.00000387749
100000.00001216245
100000.00003813478
100000.00011951844
100000.00037441535
100000.00117240033
100000.00366946055
100000.0114797758
100000.03589802161
100000.11220560689
100000.35056321556
100001.09477787194
100003.41736772914
100010.66241579359
100033.25000244586
100103.61406790183
100322.47109336812
101000.66543656129
103082.05464715908
109315.1051563648
126903.36795666833
170598.0384740512
259025.93304746598
399308.7274435673
573671.8010986357
745201.5732770294
881057.931742366
970986.3943872635
1.0242093966634052e6
1.055131467373551e6
1.074550682244738e6
1.0884899379204698e6
1.099805626883099e6
1.1097179563307774e6
1.1187049894760041e6
1.1269336138293403e6
1.134445265685873e6
1.14122965654551e6
1.1472526226413155e6
1.1524677884227054e6
1.1568289934959656e6
1.160389020635561e6
1.1646705831522685e6
1.1911792390536377e6
100000.0000000381
100000.00000011802
100000.00000036898
100000.00000115533
100000.00000362018
100000.00001134153
100000.00003551622
100000.00011116696
100000.00034778212
100000.00108747445
100000.00339867838
100000.01061645194
100000.03314562212
100000.10343065864
100000.32258721425
100001.00558140161
100003.13295973658
100009.75549397359
100030.35798307204
100094.39466612152
100293.11933347692
100907.62156607598
102790.75783947417
108432.24437622108
124430.18792105642
164691.56555189868
247818.33334930596
382685.4541363261
554101.1708561617
726430.7616055451
865693.3184848283
959370.093012594
1.0152719038522476e6
1.0476325768885055e6
1.0676211628186638e6
1.0816401629043485e6
1.0927900935145754e6
1.102422014324526e6
1.1110786986370122e6
1.118959051933814e6
1.1261222775743122e6
1.1325706346155186e6
1.1382815352593395e6
1.143221633224502e6
1.147363557900457e6
1.150815983886157e6
1.155407576674615e6
1.1833104659046987e6
100000.00000003543
100000.00000010959
100000.00000034239
100000.00000107076
100000.00000335096
100000.00001048396
100000.00003278439
100000.00010246527
100000.00032006856
100000.00099922286
100000.00311768308
100000.00972185131
100000.03029774262
100000.09436528588
100000.2937315491
100000.91373388178
100002.84061071805
100008.82496246752
100027.39641012883
100084.97255224983
100263.1827312294
100812.8906942948
102494.41450511057
107532.3931134028
121888.51741312357
158513.1898902331
235815.6495029682
364451.55992894113
532149.4243787705
704961.8517541724
847875.8960735266
945837.1415690526
1.0049128208672004e6
1.0390239486857669e6
1.0597234085775407e6
1.073850189046295e6
1.084795814898326e6
1.094070088952186e6
1.10229463373852e6
1.109707019214858e6
1.1163877431867467e6
1.122354760736717e6
1.1276016417773317e6
1.1321156917663186e6
1.1359013410709132e6
1.1391500882360723e6
1.144063676214938e6
1.1737631074255938e6
100000.00000003273
100000.00000010109
100000.00000031508
100000.00000098404
100000.00000307555
100000.00000960725
100000.00002999541
100000.00009359448
100000.000291859
100000.00090953227
100000.00283257118
100000.00881568178
100000.02741812005
100000.08521573128
100000.26466396662
100000.82139857773
100002.54733313662
100007.89356500961
100024.43907251625
100075.58707646337
100233.43652799784
100718.97191961194
102200.97593412813
106640.01858379974
119347.34722461706
152219.55054696152
223266.51830112256
344863.725242954
507956.87416988
680756.9598025304
827442.6646631017
930202.751520442
992989.3016814772
1.0292140450061014e6
1.0508014710618404e6
1.065080745273942e6
1.0757849705085978e6
1.0846141428941858e6
1.092284610409638e6
1.0990793231076815e6
1.1051025788675626e6
1.1103897535834664e6
1.1149541125749012e6
1.1188119472492589e6
1.12201685234775e6
1.1248837930589863e6
1.1301005977182458e6
1.1621877352867706e6
100000.0000000299
100000.00000009233
100000.00000028759
100000.00000089707
100000.0000027987
100000.000008728
100000.00002720239
100000.00008472514
100000.00026370243
100000.00082017154
100000.00254903828
100000.00791628435
100000.02456582666
100000.07617228037
100000.23599752253
100000.73055084448
100002.25949214754
100006.98181004968
100021.55202687692
100066.45084600773
100204.56392046744
100628.05270759037
101917.38403763187
105776.66953423107
116869.61222374967
145963.89541650572
210435.7049764944
324222.0791845168
481718.5842574689
653814.8875433712
804234.1296709375
912263.8369198422
979337.6750378896
1.0180981350636218e6
1.0407951438573516e6
1.055295082427237e6
1.0657263954577725e6
1.0740144632647808e6
1.0809878299447983e6
1.0869807826201415e6
1.0921212165191611e6
1.096459678218894e6
1.1000281450119247e6
1.1028775565754357e6
1.1051297210354644e6
1.1072800992745848e6
1.112692534980833e6
1.1480733842663087e6
100000.0000000271
100000.0000000837
100000.0000002605
100000.00000081093
100000.00000252532
100000.00000786086
100000.00002445345
100000.00007601216
100000.0002360965
100000.00073273446
100000.00227219104
100000.00704001743
100000.0217932497
100000.0674026589
100000.20826901616
100000.64290789119
100001.98257775117
100006.1072355827
100018.7912415171
100057.74223269636
100177.13239793012
100541.93425427187
101649.33276928875
104960.18260977695
114509.49447849828
139889.28552799387
197595.82278062403
302868.3859592999
453693.2945998568
624186.107628479
778105.4959224872
891802.0804300477
963771.7157696602
1.005556298544808e6
1.0296400060604202e6
1.0444617261356462e6
1.0546011726440703e6
1.062248199047408e6
1.0683625096036755e6
1.073333934086605e6
1.0773087506776538e6
1.0803430583362395e6
1.082474219106179e6
1.0837782008938754e6
1.084457441518752e6
1.0852564885374475e6
1.0905186773147397e6
1.1305914532149357e6
100000.00000002435
100000.00000007547
100000.00000023392
100000.00000072698
100000.00000225948
100000.00000701948
100000.00002179101
100000.00006759125
100000.00020947278
100000.00064859599
100000.00200640546
100000.00620080129
100000.01914463525
100000.05904736985
100000.18192414808
100000.55988181241
100001.72105732946
100005.28395070451
100016.20118800718
100049.6011008115
100151.58090129925
100461.99255539475
101401.14314569834
104204.22116691819
112310.44482426025
134122.02300242567
185016.87356867382
281180.57308718417
424210.2813048005
591989.366915761
748941.6216771388
868589.5817208485
946081.2413974348
991450.462614349
1.017266299655086e6
1.0325565215392866e6
1.0424084337472607e6
1.0493195707656685e6
1.0544014670968852e6
1.0581011928672956e6
1.0605707395614218e6
1.0618445274652396e6
1.061935122171547e6
1.0609033533632567e6
1.0589962758965613e6
1.0572468992086384e6
1.0614015334408677e6
1.1081331195609267e6
100000.00000002196
100000.00000006736
100000.00000020851
100000.0000006462
100000.00000200485
100000.00000621506
100000.00001925125
100000.00005957547
100000.00018418826
100000.00056888351
100000.00175523902
100000.00540984253
100000.01665523056
100000.05121707538
100000.15730961945
100000.48255618032
100001.47830795943
100004.52244640875
100013.81433719778
100042.12755619438
100128.21700727896
100389.17243998508
101175.74478414214
103518.14463022958
110304.06881973229
128765.93992285545
172954.03652580248
259562.82734017502
393672.55140001915
557428.8167320038
716676.1315866827
842398.2578782329
926031.8297691126
975620.6071153753
1.0035962929362693e6
1.019563305025221e6
1.0291704860576864e6
1.0352707818552769e6
1.0391508277545114e6
1.0413139973079828e6
1.0418956775928574e6
1.0408673022987602e6
1.0381396267290711e6
1.0336527089505374e6
1.0275687605037274e6
1.0211137460491926e6
1.0217798737239284e6
1.076784779960741e6
100000.00000001935
100000.0000000595
100000.00000018415
100000.0000005699
100000.000001764
100000.00000545655
100000.00001686186
100000.00005205319
100000.00016052077
100000.00049446417
100000.00152139176
100000.00467552867
100000.01435100973
100000.04399192579
100000.13467175326
100000.41168441747
100001.25662124617
100003.82964691198
100011.65144980027
100035.38330926948
100107.22268197052
100324.0096510139
100974.74921991966
102907.17755792268
108509.93197214912
123898.21230018452
161634.5932195284
238430.82149656283
362554.5436523018
520809.85054889385
681314.5237731435
813014.1542540451
903366.6418749276
957880.315820567
988539.5989078593
1.0054720942183356e6
1.0149355736726836e6
1.0201913150668098e6
1.022728860167279e6
1.0231105278388533e6
1.0214278800688469e6
1.0175181201070391e6
1.0110597819779138e6
1.001647279292543e6
989003.5849007295
974057.8288451915
965433.9944144334
1.0224083555205852e6
100000.00000001705
100000.00000005227
100000.0000001613
100000.00000049848
100000.00000153958
100000.0000047508
100000.0000146441
100000.00004508927
100000.00013866839
100000.0004259455
100000.00130671741
100000.00400348134
100000.01224891549
100000.03742260086
100000.11416075754
100000.34770669155
100001.0572687371
100003.20915832157
100009.72250706809
100029.39510654152
100088.66670880253
100266.6745667452
100798.59464784048
102372.8233183332
106936.2318770616
119567.25304612235
151245.35343265193
218192.25088221265
331392.5452090219
482551.1141916758
642960.3241023454
780257.7326891853
877811.6756338798
938012.1151814287
971985.9205834738
990273.3328559324
999775.5532629421
1.0042205198407874e6
1.0053421648153248e6
1.0037736062429888e6
999538.8329198696
992256.1804964339
981155.69731393
964910.6697745803
941168.4402613286
905455.9627351649
848607.2812872668
745020.326790289
100000.00000001478
100000.00000004547
100000.00000014034
100000.00000043253
100000.00000133284
100000.00000410213
100000.00001261159
100000.0000387246
100000.00011875402
100000.00036368985
100000.00111227218
100000.00339673986
100000.01035753019
100000.03153273638
100000.09583945334
100000.29078116987
100000.88061327726
100002.66166347195
100008.02810380836
100024.15961710374
100072.52168978851
100217.03045623572
100646.73876023646
101913.45136487475
105581.18465158681
115792.97953908917
141922.29145727167
199223.74383947748
300766.4358906367
443189.55675440986
601842.2727406119
744010.8572684998
849086.1970568353
915763.5831014364
953795.0776582453
973946.9586777186
983776.0037752306
987541.0470344519
987281.7925322389
983744.7887752231
976914.733565219
966233.1083949178
950589.3139915128
928087.1142188532
895509.1026308942
847331.0695367692
774188.3363471199
659975.3132830835
100000.00000001283
100000.00000003929
100000.000000121
100000.00000037251
100000.00000114471
100000.0000035134
100000.00001077156
100000.00003297895
100000.00010083108
100000.00030783632
100000.00093839683
100000.00285604378
100000.00867805997
100000.0263223462
100000.07969515046
100000.24082509307
100000.72625073313
100002.18540967103
100006.56112231506
100019.64915831128
100058.68353590133
100174.69923715453
100517.8761440251
101524.98123491713
104434.90180888913
112569.38730731764
133744.1398083991
181846.28568419328
271272.2453382122
403375.1179226004
558339.2244499043
704250.4199040944
816920.4642561233
890846.02425775
933784.9265272329
956445.4192401965
967014.4962957241
970349.631907348
968873.7512792691
963519.8065958244
954310.2204995535
940630.5162473426
921264.6440027575
894244.3387589981
856540.9425002594
803690.532138789
729751.6655034242
628444.0624788973
100000.00000001099
100000.00000003376
100000.00000010364
100000.00000031808
100000.0000009752
100000.00000298498
100000.00000912481
100000.0000278532
100000.00008489264
100000.00025833173
100000.0007848179
100000.00238018173
100000.00720552373
100000.02177186387
100000.0656533555
100000.19756122971
100000.59316710665
100001.77673904711
100005.30851869554
100015.81769748086
100046.99156595342
100139.12843459798
100410.15892353347
101201.59025060039
103481.50488133453
109868.98388071964
126731.27145695854
166302.3539865077
243486.40809413217
363851.95544305455
512998.09541421005
661087.1816686539
781082.9744559645
862938.6741103199
911719.7534668286
937674.0836787465
949535.0329761019
952817.3122614555
950416.4132404525
943540.89720808
932348.5266725533
916298.953186004
894271.6184932151
864541.6045508257
824705.9870500227
771730.1703536941
702506.6189618397
615540.4576147568
100000.0000000094
100000.0000000288
100000.00000008827
100000.00000026979
100000.00000082431
100000.000002516
100000.00000766777
100000.00002333226
100000.00007088154
100000.00021496415
100000.00065076264
100000.00196637512
100000.0059300348
100000.01784643311
100000.05359211491
100000.1605657143
100000.47989782601
100001.43061789912
100004.25307824975
100012.60665933424
100037.24767058434
100109.65423571946
100321.4033448185
100936.38349510061
102701.23941500351
107648.35716518201
120850.31847048466
152738.64247850576
217924.46901094096
325424.2447327268
466539.14307666896
614806.3421658253
741418.8201398249
831702.0591836406
887302.4438036744
917472.0582212559
931322.4508554604
935057.0621519726
932135.240456306
924136.203461158
911449.7634273248
893715.5036463379
870032.5874022988
839049.6700086686
799047.7238091397
748172.4048684732
685067.681820443
610164.4355197878
100000.00000000799
100000.00000002442
100000.00000007442
100000.00000022705
100000.00000069149
100000.00000210413
100000.00000639247
100000.00001938822
100000.0000587008
100000.00017739781
100000.00053507577
100000.00161066436
100000.00483808457
100000.01450014369
100000.04335597462
100000.12931397824
100000.38467853446
100001.14113059177
100003.37502918205
100009.95018491014
100029.233408262
100085.55697711835
100249.26998486118
100721.98104655587
102072.39717255396
105854.05188865619
116023.81852987157
141198.09554784154
194999.08227748066
288906.67422187154
419842.63741623715
565903.7751150674
697899.0511580688
796804.3026419899
860174.427092834