# vtk DataFile Version 2.0
JuliaCFD
ASCII
DATASET UNSTRUCTURED_GRID

POINTS 32898 float
0.0 0.0 -0.05
0.0125 0.0 -0.05
0.025 0.0 -0.05
0.0375 0.0 -0.05
0.05 0.0 -0.05
0.0625 0.0 -0.05
0.075 0.0 -0.05
0.0875 0.0 -0.05
0.1 0.0 -0.05
0.1125 0.0 -0.05
0.125 0.0 -0.05
0.1375 0.0 -0.05
0.15 0.0 -0.05
0.1625 0.0 -0.05
0.175 0.0 -0.05
0.1875 0.0 -0.05
0.2 0.0 -0.05
0.2125 0.0 -0.05
0.225 0.0 -0.05
0.2375 0.0 -0.05
0.25 0.0 -0.05
0.2625 0.0 -0.05
0.275 0.0 -0.05
0.2875 0.0 -0.05
0.3 0.0 -0.05
0.3125 0.0 -0.05
0.325 0.0 -0.05
0.3375 0.0 -0.05
0.35 0.0 -0.05
0.3625 0.0 -0.05
0.375 0.0 -0.05
0.3875 0.0 -0.05
0.4 0.0 -0.05
0.4125 0.0 -0.05
0.425 0.0 -0.05
0.4375 0.0 -0.05
0.45 0.0 -0.05
0.4625 0.0 -0.05
0.475 0.0 -0.05
0.4875 0.0 -0.05
0.5 0.0 -0.05
0.5125 0.0 -0.05
0.525 0.0 -0.05
0.5375 0.0 -0.05
0.55 0.0 -0.05
0.5625 0.0 -0.05
0.575 0.0 -0.05
0.5875 0.0 -0.05
0.6 0.0 -0.05
0.0 0.0125 -0.05
0.0125 0.0125 -0.05
0.025 0.0125 -0.05
0.0375 0.0125 -0.05
0.05 0.0125 -0.05
0.0625 0.0125 -0.05
0.075 0.0125 -0.05
0.0875 0.0125 -0.05
0.1 0.0125 -0.05
0.1125 0.0125 -0.05
0.125 0.0125 -0.05
0.1375 0.0125 -0.05
0.15 0.0125 -0.05
0.1625 0.0125 -0.05
0.175 0.0125 -0.05
0.1875 0.0125 -0.05
0.2 0.0125 -0.05
0.2125 0.0125 -0.05
0.225 0.0125 -0.05
0.2375 0.0125 -0.05
0.25 0.0125 -0.05
0.2625 0.0125 -0.05
0.275 0.0125 -0.05
0.2875 0.0125 -0.05
0.3 0.0125 -0.05
0.3125 0.0125 -0.05
0.325 0.0125 -0.05
0.3375 0.0125 -0.05
0.35 0.0125 -0.05
0.3625 0.0125 -0.05
0.375 0.0125 -0.05
0.3875 0.0125 -0.05
0.4 0.0125 -0.05
0.4125 0.0125 -0.05
0.425 0.0125 -0.05
0.4375 0.0125 -0.05
0.45 0.0125 -0.05
0.4625 0.0125 -0.05
0.475 0.0125 -0.05
0.4875 0.0125 -0.05
0.5 0.0125 -0.05
0.5125 0.0125 -0.05
0.525 0.0125 -0.05
0.5375 0.0125 -0.05
0.55 0.0125 -0.05
0.5625 0.0125 -0.05
0.575 0.0125 -0.05
0.5875 0.0125 -0.05
0.6 0.0125 -0.05
0.0 0.025 -0.05
0.0125 0.025 -0.05
0.025 0.025 -0.05
0.0375 0.025 -0.05
0.05 0.025 -0.05
0.0625 0.025 -0.05
0.075 0.025 -0.05
0.0875 0.025 -0.05
0.1 0.025 -0.05
0.1125 0.025 -0.05
0.125 0.025 -0.05
0.1375 0.025 -0.05
0.15 0.025 -0.05
0.1625 0.025 -0.05
0.175 0.025 -0.05
0.1875 0.025 -0.05
0.2 0.025 -0.05
0.2125 0.025 -0.05
0.225 0.025 -0.05
0.2375 0.025 -0.05
0.25 0.025 -0.05
0.2625 0.025 -0.05
0.275 0.025 -0.05
0.2875 0.025 -0.05
0.3 0.025 -0.05
0.3125 0.025 -0.05
0.325 0.025 -0.05
0.3375 0.025 -0.05
0.35 0.025 -0.05
0.3625 0.025 -0.05
0.375 0.025 -0.05
0.3875 0.025 -0.05
0.4 0.025 -0.05
0.4125 0.025 -0.05
0.425 0.025 -0.05
0.4375 0.025 -0.05
0.45 0.025 -0.05
0.4625 0.025 -0.05
0.475 0.025 -0.05
0.4875 0.025 -0.05
0.5 0.025 -0.05
0.5125 0.025 -0.05
0.525 0.025 -0.05
0.5375 0.025 -0.05
0.55 0.025 -0.05
0.5625 0.025 -0.05
0.575 0.025 -0.05
0.5875 0.025 -0.05
0.6 0.025 -0.05
0.0 0.0375 -0.05
0.0125 0.0375 -0.05
0.025 0.0375 -0.05
0.0375 0.0375 -0.05
0.05 0.0375 -0.05
0.0625 0.0375 -0.05
0.075 0.0375 -0.05
0.0875 0.0375 -0.05
0.1 0.0375 -0.05
0.1125 0.0375 -0.05
0.125 0.0375 -0.05
0.1375 0.0375 -0.05
0.15 0.0375 -0.05
0.1625 0.0375 -0.05
0.175 0.0375 -0.05
0.1875 0.0375 -0.05
0.2 0.0375 -0.05
0.2125 0.0375 -0.05
0.225 0.0375 -0.05
0.2375 0.0375 -0.05
0.25 0.0375 -0.05
0.2625 0.0375 -0.05
0.275 0.0375 -0.05
0.2875 0.0375 -0.05
0.3 0.0375 -0.05
0.3125 0.0375 -0.05
0.325 0.0375 -0.05
0.3375 0.0375 -0.05
0.35 0.0375 -0.05
0.3625 0.0375 -0.05
0.375 0.0375 -0.05
0.3875 0.0375 -0.05
0.4 0.0375 -0.05
0.4125 0.0375 -0.05
0.425 0.0375 -0.05
0.4375 0.0375 -0.05
0.45 0.0375 -0.05
0.4625 0.0375 -0.05
0.475 0.0375 -0.05
0.4875 0.0375 -0.05
0.5 0.0375 -0.05
0.5125 0.0375 -0.05
0.525 0.0375 -0.05
0.5375 0.0375 -0.05
0.55 0.0375 -0.05
0.5625 0.0375 -0.05
0.575 0.0375 -0.05
0.5875 0.0375 -0.05
0.6 0.0375 -0.05
0.0 0.05 -0.05
0.0125 0.05 -0.05
0.025 0.05 -0.05
0.0375 0.05 -0.05
0.05 0.05 -0.05
0.0625 0.05 -0.05
0.075 0.05 -0.05
0.0875 0.05 -0.05
0.1 0.05 -0.05
0.1125 0.05 -0.05
0.125 0.05 -0.05
0.1375 0.05 -0.05
0.15 0.05 -0.05
0.1625 0.05 -0.05
0.175 0.05 -0.05
0.1875 0.05 -0.05
0.2 0.05 -0.05
0.2125 0.05 -0.05
0.225 0.05 -0.05
0.2375 0.05 -0.05
0.25 0.05 -0.05
0.2625 0.05 -0.05
0.275 0.05 -0.05
0.2875 0.05 -0.05
0.3 0.05 -0.05
0.3125 0.05 -0.05
0.325 0.05 -0.05
0.3375 0.05 -0.05
0.35 0.05 -0.05
0.3625 0.05 -0.05
0.375 0.05 -0.05
0.3875 0.05 -0.05
0.4 0.05 -0.05
0.4125 0.05 -0.05
0.425 0.05 -0.05
0.4375 0.05 -0.05
0.45 0.05 -0.05
0.4625 0.05 -0.05
0.475 0.05 -0.05
0.4875 0.05 -0.05
0.5 0.05 -0.05
0.5125 0.05 -0.05
0.525 0.05 -0.05
0.5375 0.05 -0.05
0.55 0.05 -0.05
0.5625 0.05 -0.05
0.575 0.05 -0.05
0.5875 0.05 -0.05
0.6 0.05 -0.05
0.0 0.0625 -0.05
0.0125 0.0625 -0.05
0.025 0.0625 -0.05
0.0375 0.0625 -0.05
0.05 0.0625 -0.05
0.0625 0.0625 -0.05
0.075 0.0625 -0.05
0.0875 0.0625 -0.05
0.1 0.0625 -0.05
0.1125 0.0625 -0.05
0.125 0.0625 -0.05
0.1375 0.0625 -0.05
0.15 0.0625 -0.05
0.1625 0.0625 -0.05
0.175 0.0625 -0.05
0.1875 0.0625 -0.05
0.2 0.0625 -0.05
0.2125 0.0625 -0.05
0.225 0.0625 -0.05
0.2375 0.0625 -0.05
0.25 0.0625 -0.05
0.2625 0.0625 -0.05
0.275 0.0625 -0.05
0.2875 0.0625 -0.05
0.3 0.0625 -0.05
0.3125 0.0625 -0.05
0.325 0.0625 -0.05
0.3375 0.0625 -0.05
0.35 0.0625 -0.05
0.3625 0.0625 -0.05
0.375 0.0625 -0.05
0.3875 0.0625 -0.05
0.4 0.0625 -0.05
0.4125 0.0625 -0.05
0.425 0.0625 -0.05
0.4375 0.0625 -0.05
0.45 0.0625 -0.05
0.4625 0.0625 -0.05
0.475 0.0625 -0.05
0.4875 0.0625 -0.05
0.5 0.0625 -0.05
0.5125 0.0625 -0.05
0.525 0.0625 -0.05
0.5375 0.0625 -0.05
0.55 0.0625 -0.05
0.5625 0.0625 -0.05
0.575 0.0625 -0.05
0.5875 0.0625 -0.05
0.6 0.0625 -0.05
0.0 0.075 -0.05
0.0125 0.075 -0.05
0.025 0.075 -0.05
0.0375 0.075 -0.05
0.05 0.075 -0.05
0.0625 0.075 -0.05
0.075 0.075 -0.05
0.0875 0.075 -0.05
0.1 0.075 -0.05
0.1125 0.075 -0.05
0.125 0.075 -0.05
0.1375 0.075 -0.05
0.15 0.075 -0.05
0.1625 0.075 -0.05
0.175 0.075 -0.05
0.1875 0.075 -0.05
0.2 0.075 -0.05
0.2125 0.075 -0.05
0.225 0.075 -0.05
0.2375 0.075 -0.05
0.25 0.075 -0.05
0.2625 0.075 -0.05
0.275 0.075 -0.05
0.2875 0.075 -0.05
0.3 0.075 -0.05
0.3125 0.075 -0.05
0.325 0.075 -0.05
0.3375 0.075 -0.05
0.35 0.075 -0.05
0.3625 0.075 -0.05
0.375 0.075 -0.05
0.3875 0.075 -0.05
0.4 0.075 -0.05
0.4125 0.075 -0.05
0.425 0.075 -0.05
0.4375 0.075 -0.05
0.45 0.075 -0.05
0.4625 0.075 -0.05
0.475 0.075 -0.05
0.4875 0.075 -0.05
0.5 0.075 -0.05
0.5125 0.075 -0.05
0.525 0.075 -0.05
0.5375 0.075 -0.05
0.55 0.075 -0.05
0.5625 0.075 -0.05
0.575 0.075 -0.05
0.5875 0.075 -0.05
0.6 0.075 -0.05
0.0 0.0875 -0.05
0.0125 0.0875 -0.05
0.025 0.0875 -0.05
0.0375 0.0875 -0.05
0.05 0.0875 -0.05
0.0625 0.0875 -0.05
0.075 0.0875 -0.05
0.0875 0.0875 -0.05
0.1 0.0875 -0.05
0.1125 0.0875 -0.05
0.125 0.0875 -0.05
0.1375 0.0875 -0.05
0.15 0.0875 -0.05
0.1625 0.0875 -0.05
0.175 0.0875 -0.05
0.1875 0.0875 -0.05
0.2 0.0875 -0.05
0.2125 0.0875 -0.05
0.225 0.0875 -0.05
0.2375 0.0875 -0.05
0.25 0.0875 -0.05
0.2625 0.0875 -0.05
0.275 0.0875 -0.05
0.2875 0.0875 -0.05
0.3 0.0875 -0.05
0.3125 0.0875 -0.05
0.325 0.0875 -0.05
0.3375 0.0875 -0.05
0.35 0.0875 -0.05
0.3625 0.0875 -0.05
0.375 0.0875 -0.05
0.3875 0.0875 -0.05
0.4 0.0875 -0.05
0.4125 0.0875 -0.05
0.425 0.0875 -0.05
0.4375 0.0875 -0.05
0.45 0.0875 -0.05
0.4625 0.0875 -0.05
0.475 0.0875 -0.05
0.4875 0.0875 -0.05
0.5 0.0875 -0.05
0.5125 0.0875 -0.05
0.525 0.0875 -0.05
0.5375 0.0875 -0.05
0.55 0.0875 -0.05
0.5625 0.0875 -0.05
0.575 0.0875 -0.05
0.5875 0.0875 -0.05
0.6 0.0875 -0.05
0.0 0.1 -0.05
0.0125 0.1 -0.05
0.025 0.1 -0.05
0.0375 0.1 -0.05
0.05 0.1 -0.05
0.0625 0.1 -0.05
0.075 0.1 -0.05
0.0875 0.1 -0.05
0.1 0.1 -0.05
0.1125 0.1 -0.05
0.125 0.1 -0.05
0.1375 0.1 -0.05
0.15 0.1 -0.05
0.1625 0.1 -0.05
0.175 0.1 -0.05
0.1875 0.1 -0.05
0.2 0.1 -0.05
0.2125 0.1 -0.05
0.225 0.1 -0.05
0.2375 0.1 -0.05
0.25 0.1 -0.05
0.2625 0.1 -0.05
0.275 0.1 -0.05
0.2875 0.1 -0.05
0.3 0.1 -0.05
0.3125 0.1 -0.05
0.325 0.1 -0.05
0.3375 0.1 -0.05
0.35 0.1 -0.05
0.3625 0.1 -0.05
0.375 0.1 -0.05
0.3875 0.1 -0.05
0.4 0.1 -0.05
0.4125 0.1 -0.05
0.425 0.1 -0.05
0.4375 0.1 -0.05
0.45 0.1 -0.05
0.4625 0.1 -0.05
0.475 0.1 -0.05
0.4875 0.1 -0.05
0.5 0.1 -0.05
0.5125 0.1 -0.05
0.525 0.1 -0.05
0.5375 0.1 -0.05
0.55 0.1 -0.05
0.5625 0.1 -0.05
0.575 0.1 -0.05
0.5875 0.1 -0.05
0.6 0.1 -0.05
0.0 0.1125 -0.05
0.0125 0.1125 -0.05
0.025 0.1125 -0.05
0.0375 0.1125 -0.05
0.05 0.1125 -0.05
0.0625 0.1125 -0.05
0.075 0.1125 -0.05
0.0875 0.1125 -0.05
0.1 0.1125 -0.05
0.1125 0.1125 -0.05
0.125 0.1125 -0.05
0.1375 0.1125 -0.05
0.15 0.1125 -0.05
0.1625 0.1125 -0.05
0.175 0.1125 -0.05
0.1875 0.1125 -0.05
0.2 0.1125 -0.05
0.2125 0.1125 -0.05
0.225 0.1125 -0.05
0.2375 0.1125 -0.05
0.25 0.1125 -0.05
0.2625 0.1125 -0.05
0.275 0.1125 -0.05
0.2875 0.1125 -0.05
0.3 0.1125 -0.05
0.3125 0.1125 -0.05
0.325 0.1125 -0.05
0.3375 0.1125 -0.05
0.35 0.1125 -0.05
0.3625 0.1125 -0.05
0.375 0.1125 -0.05
0.3875 0.1125 -0.05
0.4 0.1125 -0.05
0.4125 0.1125 -0.05
0.425 0.1125 -0.05
0.4375 0.1125 -0.05
0.45 0.1125 -0.05
0.4625 0.1125 -0.05
0.475 0.1125 -0.05
0.4875 0.1125 -0.05
0.5 0.1125 -0.05
0.5125 0.1125 -0.05
0.525 0.1125 -0.05
0.5375 0.1125 -0.05
0.55 0.1125 -0.05
0.5625 0.1125 -0.05
0.575 0.1125 -0.05
0.5875 0.1125 -0.05
0.6 0.1125 -0.05
0.0 0.125 -0.05
0.0125 0.125 -0.05
0.025 0.125 -0.05
0.0375 0.125 -0.05
0.05 0.125 -0.05
0.0625 0.125 -0.05
0.075 0.125 -0.05
0.0875 0.125 -0.05
0.1 0.125 -0.05
0.1125 0.125 -0.05
0.125 0.125 -0.05
0.1375 0.125 -0.05
0.15 0.125 -0.05
0.1625 0.125 -0.05
0.175 0.125 -0.05
0.1875 0.125 -0.05
0.2 0.125 -0.05
0.2125 0.125 -0.05
0.225 0.125 -0.05
0.2375 0.125 -0.05
0.25 0.125 -0.05
0.2625 0.125 -0.05
0.275 0.125 -0.05
0.2875 0.125 -0.05
0.3 0.125 -0.05
0.3125 0.125 -0.05
0.325 0.125 -0.05
0.3375 0.125 -0.05
0.35 0.125 -0.05
0.3625 0.125 -0.05
0.375 0.125 -0.05
0.3875 0.125 -0.05
0.4 0.125 -0.05
0.4125 0.125 -0.05
0.425 0.125 -0.05
0.4375 0.125 -0.05
0.45 0.125 -0.05
0.4625 0.125 -0.05
0.475 0.125 -0.05
0.4875 0.125 -0.05
0.5 0.125 -0.05
0.5125 0.125 -0.05
0.525 0.125 -0.05
0.5375 0.125 -0.05
0.55 0.125 -0.05
0.5625 0.125 -0.05
0.575 0.125 -0.05
0.5875 0.125 -0.05
0.6 0.125 -0.05
0.0 0.1375 -0.05
0.0125 0.1375 -0.05
0.025 0.1375 -0.05
0.0375 0.1375 -0.05
0.05 0.1375 -0.05
0.0625 0.1375 -0.05
0.075 0.1375 -0.05
0.0875 0.1375 -0.05
[...]
CELL_DATA 16128
SCALARS P float 1
LOOKUP_TABLE default
100000.0
100000.0
100000.0
99999.99999999993
100000.00000000006
99999.9999999996
100000.00000000055
99999.99999999792
100000.00000000438
99999.99999998973
100000.00000001295
100000.00000001356
99999.99999978843
100000.00000111276
99999.99999541926
100000.00001655509
99999.99994525535
100000.00016832644
99999.99951641759
100000.0012926521
99999.99683641882
100000.00679743182
99999.98874317623
100000.00507843414
100000.06921051962
99999.55876145586
100001.92827710915
99992.77645614943
100024.52366141857
99928.70015956352
99950.90378215407
113729.65225353408
262531.0013124459
615209.6364756819
989222.5746020467
1.1662556439751342e6
1.191740033739726e6
1.1963648468234874e6
1.2033460121881529e6
1.2096488409271333e6
1.215401250530115e6
1.2205267908758898e6
1.2248708859619717e6
1.2286805602531694e6
1.2311817555058643e6
1.2346985637739263e6
1.2324386971072725e6
1.2445472068384537e6
100000.0
99999.99999999988
100000.0
99999.99999999988
100000.00000000006
99999.99999999967
100000.00000000032
99999.9999999978
100000.00000000444
99999.99999998958
100000.0000000141
100000.00000000848
99999.99999980717
100000.00000105068
99999.99999561002
100000.00001601911
99999.99994662315
100000.0001652938
99999.99952152098
100000.00129067707
99999.9968016149
100000.00701601831
99999.98779743019
100000.0085565069
100000.05769198416
99999.59384800804
100001.82940937018
99993.03251599174
100023.93831039286
99929.50662811052
99958.05080167255
113178.06430941369
260304.03949063946
613918.2609062103
993611.485070059
1.176529826261047e6
1.2044940107350792e6
1.2100069731176575e6
1.2174285034702327e6
1.2238540192313925e6
1.229497322060971e6
1.2343336379548784e6
1.2382521813695903e6
1.241552022209634e6
1.2435173891109421e6
1.2465451404503218e6
1.2437972670711249e6
1.2559714278056102e6
99999.99999999994
99999.99999999988
100000.0
99999.99999999983
99999.99999999997
99999.9999999996
100000.00000000023
99999.99999999769
100000.0000000041
99999.99999998917
100000.00000001617
99999.99999999857
99999.99999984553
100000.00000091821
99999.99999603
100000.00001479164
99999.99994990628
100000.00015746497
99999.9995369271
100000.00127289687
99999.99676357093
100000.0074019245
99999.98589113171
100000.01616282457
100000.0306633852
99999.68243319885
100001.55769032556
99993.81578108629
100021.84151308311
99934.0937848689
99965.53601174329
111852.56865247381
253131.85547685827
601471.8802215913
982023.5950209431
1.1693093834062635e6
1.1989168711900122e6
1.2041237070051567e6
1.2112553500440717e6
1.2174936133672341e6
1.2230225870428088e6
1.2278273808394703e6
1.231793235034911e6
1.235194133245242e6
1.2373053897611147e6
1.2404658998656534e6
1.237801901541481e6
1.2503768422029295e6
100000.0
100000.0
100000.0
100000.0
99999.99999999988
99999.99999999962
100000.00000000048
99999.99999999796
100000.00000000413
99999.99999998896
100000.00000001898
99999.99999998543
99999.99999989795
100000.00000073246
99999.99999663165
100000.00001299323
99999.99995485305
100000.00014518264
99999.99956301843
100000.00123376679
99999.99675156403
100000.00783378663
99999.98346956602
100000.02638736898
99999.99295578858
99999.80978815162
100001.15601685627
99995.00741235622
100018.54347576525
99941.69577641145
99977.02480928267
109923.05538442648
242061.33900763912
582621.8103860918
966618.9853497329
1.1633366039636368e6
1.1970063317803189e6
1.202478027282667e6
1.2096813786809472e6
1.216006636797486e6
1.221595630845723e6
1.2264573372963388e6
1.230484447914321e6
1.2339412775818566e6
1.23611812426261e6
1.2393211271214949e6
1.2366305383620318e6
1.2496785477453803e6
99999.99999999994
99999.99999999988
99999.99999999988
99999.99999999971
99999.99999999993
99999.99999999965
100000.00000000012
99999.99999999814
100000.00000000407
99999.9999999888
100000.0000000216
99999.99999997113
99999.99999995835
100000.00000051137
99999.99999736759
100000.00001073029
99999.99996128918
100000.00012844092
99999.99960152488
100000.00116296284
99999.99681071543
100000.00814104789
99999.98111929759
100000.03735816888
99999.95014636386
99999.96046286126
100000.6635228673
99996.52070206808
100014.18732039993
99952.358467655
99990.54669082961
107651.2278862014
227601.30979978043
557003.042103802
944871.4244834208
1.1541647976846758e6
1.1933809338810889e6
1.198932757301775e6
1.2059160895569397e6
1.2121183884158034e6
1.2175943886256376e6
1.2223750080224928e6
1.226358731209645e6
1.2297950564713278e6
1.231988340238885e6
1.2352014119722268e6
1.2324599950343391e6
1.2460703192605544e6
100000.0
99999.99999999988
99999.99999999988
99999.99999999983
99999.99999999988
99999.99999999959
100000.00000000023
99999.99999999824
100000.00000000365
99999.99999998896
100000.00000002368
99999.99999995764
100000.00000001931
100000.00000027793
99999.99999817483
100000.00000815846
99999.9999688964
100000.00010763145
99999.99965321601
100000.00105203628
99999.99698430159
100000.0081458108
99999.97948911285
100000.04690164966
99999.90901368811
100000.11474224378
100000.13323713164
99998.22699911991
100009.0317001097
99965.89927405617
100001.34745911972
105337.38809333146
210507.4420200519
524957.9641588082
916504.168624936
1.1419220187517323e6
1.1890199441318153e6
1.194930588580178e6
1.2016629195304534e6
1.207742145959088e6
1.2131021878547377e6
1.2177955594546404e6
1.221728318638447e6
1.2251358134672798e6
1.2273390135729022e6
1.2305616331368154e6
1.2277475913681875e6
1.2420577158244338e6
100000.0
99999.99999999988
99999.99999999988
99999.99999999977
99999.99999999993
99999.99999999968
100000.0000000001
99999.99999999841
100000.00000000335
99999.99999998954
100000.00000002472
99999.99999994702
100000.00000007324
100000.00000005635
99999.99999897812
100000.0000054866
99999.9999771576
100000.00008382286
99999.99971671535
100000.00089882809
99999.99729878602
100000.00770958298
99999.97915632023
100000.05288359827
99999.87682031257
100000.24953243544
99999.63406802634
99999.93422156575
100003.56425270908
99981.39946839205
100004.01426946373
103264.99570577736
191708.585468694
486954.95668908244
880833.8270831406
1.1256209783538324e6
1.183396003244841e6
1.1900778960159672e6
1.1964468908221552e6
1.2023173580275236e6
1.207480971471359e6
1.2120084419201387e6
1.2158165206455302e6
1.2191285838520927e6
1.221285031656661e6
1.224476929569177e6
1.2215363262672594e6
1.2366973754346704e6
100000.0
99999.99999999988
99999.99999999988
99999.99999999983
99999.99999999981
99999.99999999975
99999.9999999999
99999.99999999847
100000.00000000292
99999.99999999034
100000.00000002421
99999.99999994115
100000.00000011374
99999.99999987084
99999.99999969907
100000.00000295612
99999.99998538235
100000.0000588095
99999.99978794946
100000.00071036626
99999.99775161548
100000.00677876602
99999.98047149091
100000.053700442
99999.85987219785
100000.34222306206
99999.2416894937
100001.40375714074
99998.49123698167
99997.04958724548
99995.49580005133
101648.30995251074
172297.01443618783
443736.9755050233
837261.7443012834
1.1042237331363866e6
1.1761514742637684e6
1.1843701507353832e6
1.1902966159167595e6
1.1958770492008433e6
1.2007685617406797e6
1.2050525478050045e6
1.208660332746876e6
1.2118068407338203e6
1.213854971425549e6
1.2169724531633146e6
1.213842472864584e6
1.2300480572213985e6
100000.0
99999.99999999988
100000.0
99999.99999999988
99999.99999999993
99999.9999999997
100000.00000000012
99999.99999999886
100000.00000000233
99999.99999999179
100000.00000002209
99999.99999994072
100000.00000013641
99999.99999973929
100000.00000026893
100000.00000080487
99999.99999280558
100000.00003490184
99999.9998604294
100000.00050330936
99999.99830551115
100000.00541561886
99999.98342475558
100000.04879119562
99999.86171514599
100000.37661493452
99999.02033330026
100002.40225728705
99994.60527408731
100010.38769452643
99977.89416137124
100587.78005010719
153478.47762166074
396384.8243104636
785309.9282425619
1.076424939911614e6
1.1666929706961005e6
1.1776955472963562e6
1.1831303718857034e6
1.188307961619863e6
1.1928185884155005e6
1.1967426156358686e6
1.200029669208229e6
1.2028906753668895e6
1.2047153551915863e6
1.2076613794179016e6
1.2042282885982238e6
1.2216988890885315e6
100000.0
99999.99999999988
100000.0
99999.99999999988
99999.99999999993
99999.99999999971
100000.0
99999.99999999908
100000.00000000167
99999.9999999933
100000.00000001874
99999.99999994549
100000.00000014006
99999.99999967069
100000.00000064362
99999.99999921686
99999.99999874075
100000.00001447138
99999.99992646427
100000.00030114684
99999.99889318462
100000.00379836447
99999.98759491331
100000.0389576863
99999.88165353918
100000.34887110547
99999.00095933059
100002.7760722664
99992.5491507723
100018.97392020148
99958.77008416655
100050.65930598901
136473.80504595966
346387.64847760723
724785.0483368926
1.040695678157207e6
1.1541738896016506e6
1.1699057922346578e6
1.1748904982535648e6
1.179524831037687e6
1.1835131160844548e6
1.186922874400309e6
1.1897265476902374e6
1.1921390443776103e6
1.1935854572198049e6
1.196231362043777e6
1.1923552887225568e6
1.2113792708588396e6
100000.0
100000.0
100000.0
100000.0
100000.0
99999.99999999977
99999.99999999988
99999.99999999945
100000.00000000128
99999.99999999492
100000.00000001468
99999.99999995415
100000.00000012739
99999.99999966286
100000.00000081293
99999.99999827867
100000.00000274734
99999.999999366
99999.99997906781
100000.00012841832
99999.99943345667
100000.00218115322
99999.99223011662
100000.02628272233
99999.91440256224
100000.27061196983
99999.16526614955
100002.51991985245
99992.54914242165
100021.35266074217
99947.77621043462
99892.71705273468
122356.07876932679
295678.90006960055
655978.5027007542
995346.300067067
1.1373842003345424e6
1.1607492536402722e6
1.165511761725929e6
1.1694322116037174e6
1.1727042503024787e6
1.1753751414497695e6
1.1774365827549214e6
1.1791080502817996e6
1.179851729159306e6
1.1818613323320227e6
1.1771741523086254e6
1.197993793671218e6
100000.0
100000.0
100000.0
100000.0
100000.0
99999.99999999983
99999.99999999987
99999.99999999956
100000.00000000064
99999.99999999661
100000.00000001046
99999.99999996528
100000.00000010322
99999.9999997027
100000.00000080325
99999.99999795933
100000.00000474926
99999.9999903995
100000.00001393456
100000.00000366024
99999.99985477774
100000.0008205715
99999.99646175634
100000.0135612972
99999.95140371086
100000.16666872153
99999.44581073362
100001.80055299972
99994.25880611356
100017.85885836875
99951.12516227657
99922.31478269717
111834.85899117535
246608.49342177625
579900.2430586744
938684.0438995237
1.1146465805171393e6
1.1497969402575637e6
1.1549236527869832e6
1.1579546563756913e6
1.1602708093021535e6
1.1619245862984597e6
1.162928778490384e6
1.1635226474147562e6
1.1632285348708553e6
1.164311517070315e6
1.1585343954814884e6
1.181663291600487e6
100000.0
100000.0
100000.0
100000.0
100000.0
100000.0
99999.99999999983
99999.9999999998
100000.00000000022
99999.99999999786
100000.00000000642
99999.99999997641
100000.00000007421
99999.999999771
100000.00000066937
99999.99999811938
100000.00000504524
99999.99998713793
100000.0000306761
99999.99993382924
100000.00011746332
99999.99989394496
99999.99958586715
100000.00338609047
99999.98362535612
100000.06707735424
99999.74687415788
100000.91006730315
99996.8307040734
100010.71295058618
99967.47311376403
99981.62998124378
105049.67922732107
201807.86193223932
498508.4553021623
869294.6560861004
1.0837285807706004e6
1.1363128764757721e6
1.143013349232895e6
1.1450101577652309e6
1.1460494959467656e6
1.146267092282938e6
1.1456561395577437e6
1.1444232442494147e6
1.1420748579787153e6
1.140900906073477e6
1.1323437630038415e6
1.1572208338434452e6
100000.0
100000.0
100000.0
100000.0
100000.0
99999.99999999997
99999.99999999994
99999.99999999988
99999.99999999991
99999.99999999895
100000.00000000326
99999.99999998602
100000.00000004635
99999.99999984687
100000.0000004773
99999.9999985591
100000.00000420288
99999.99998809755
100000.00003271704
99999.99991277252
100000.00022471347
99999.99944497773
100000.00129324543
99999.99725766813
100000.00478562573
99999.99602304774
99999.9805027941
100000.15456619908
99999.2390806465
100003.18864471356
99988.65288569244
99999.39252502385
101488.55941593675
163888.25348897977
414873.4280122217
786485.9327286731
1.041843797951883e6
1.119089353097196e6
1.1296049843555836e6
1.1305862107753654e6
1.1300180371746868e6
1.1283696575157903e6
1.1256376423786478e6
1.1220368066042082e6
1.1171637649098118e6
1.113499610658847e6
1.1022822479656832e6
1.1307524364212595e6
100000.00000000009
100000.0
100000.00000000003
100000.00000000003
99999.99999999994
99999.99999999994
99999.99999999985
99999.99999999974
99999.99999999967
99999.99999999948
100000.00000000097
99999.99999999347
100000.0000000238
99999.99999991377
100000.0000002867
99999.99999907687
100000.00000287002
99999.99999129768
100000.00002582857
99999.99992464634
100000.00021671146
99999.99938405746
100000.00173361899
99999.99516048998
100000.01341275542
99999.96308338735
100000.10082864798
99999.72734411406
100000.72668459594
99998.10361515658
100004.91227923494
99983.58910244265
100143.47167483313
134913.11228570496
333176.443977208
690880.6516842003
985822.939616632
1.0962110413445309e6
1.1143281608231745e6
1.114636911817074e6
1.1120558721429175e6
1.107845811386662e6
1.101871002844152e6
1.0940136180728986e6
1.0833184163655795e6
1.0713898635775172e6
1.0478489064701031e6
1.0679120805384112e6
100000.0
100000.0
100000.0
100000.0
99999.99999999993
100000.0
99999.99999999977
99999.99999999975
99999.99999999965
99999.99999999985
99999.99999999997
99999.99999999804
100000.00000000848
99999.99999996278
100000.00000013664
99999.99999952348
100000.00000157919
99999.9999949196
100000.00001595981
99999.99995068624
100000.00015059701
99999.99954349906
100000.00137852012
99999.99583985326
100000.01258101713
99999.96178485152
100000.1168068059
99999.64025306891
100001.11725078755
99996.50259677968
100010.93298267832
99969.88499954772
99899.66720199863
115695.30021033966
258423.8562006453
585068.2746334784
912592.3812906897
1.064836704565852e6
1.0965035355216956e6
1.0972374520715037e6
1.0924466874834327e6
1.0852221481811379e6
1.0754890233376077e6
1.063031892120983e6
1.0469819249183963e6
1.0293857018887309e6
1.0002844891887788e6
1.0265453831207945e6
100000.0
100000.0
100000.0
100000.0
99999.99999999993
100000.0
99999.99999999975
99999.99999999987
99999.99999999978
99999.99999999999
99999.99999999926
100000.00000000033
100000.00000000019
99999.99999999176
100000.00000004105
99999.99999982816
100000.0000006343
99999.99999779032
100000.00000738612
99999.99997595491
100000.00007687825
99999.9997569658
100000.0007635205
99999.99760622963
100000.00751550205
99999.97630225914
100000.07522593669
99999.75913637587
100000.7789594356
99997.45511036881
100008.32127347364
99975.60419869245
99956.68471581918
105261.16754997923
195751.7147417899
474097.52369034797
820060.9136753071
1.0210234644369294e6
1.0747860078169093e6
1.0783016737552825e6
1.0712996165472744e6
1.060322207645103e6
1.0452341907434077e6
1.0246099935516128e6
994748.7634347278
950723.1357988124
867671.959504514
733369.3789683382
100000.0
100000.0
100000.0
100000.0
100000.0
100000.0
99999.99999999993
99999.99999999993
99999.99999999972
99999.99999999999
99999.99999999908
100000.00000000103
99999.999999997
100000.00000000495
99999.99999999398
99999.99999998952
100000.00000010141
99999.99999950662
100000.00000195662
99999.99999292141
100000.00002425887
99999.99991959843
100000.00026078311
99999.99916545908
100000.00265051254
99999.99160664514
100000.02660244326
99999.9153314438
100000.2713862026
99999.12251044737
100002.83656602648
99991.81088918631
99989.99533408046
101045.10268288243
149209.91344077667
365488.7841990815
708495.3471449121
959931.000846648
1.0468226400344644e6
1.0576526760129228e6
1.0492892540024e6
1.0345905984911206e6
1.0142264802775576e6
986264.5252790813
946154.1951469078
887923.947152395
791225.7610612307
647991.5199504419
100000.0
100000.0
100000.0
100000.0
100000.0
100000.00000000003
99999.99999999994
99999.99999999994
99999.99999999985
99999.99999999997
99999.9999999992
100000.00000000096
99999.99999999652
100000.00000000795
99999.99999997951
100000.00000004683
99999.99999989166
100000.00000023397
99999.99999952098
100000.00000089771
99999.99999851361
100000.00000200143
99999.99999796796
100000.00000405374
99999.9999644593
100000.00026790707
99999.99841878649
100000.00806261219
99999.96240818028
100000.16563317525
99999.2907290915
100003.12878076632
99984.2252732649
100003.64434619305
120114.42788321871
268358.9764889948
582096.3787872453
876674.0450715475
1.0087298235234928e6
1.0344980136206134e6
1.0269925473419634e6
1.0093488158362495e6
984646.0125861603
951308.3079320617
905197.7287254223
841414.6858464858
746450.7847167036
619010.8305731334
100000.00000000009
100000.0
100000.00000000004
100000.0
100000.00000000004
100000.0
100000.0
100000.0
99999.99999999977
99999.99999999997
99999.99999999939
100000.00000000073
99999.99999999716
100000.00000000629
99999.99999998137
100000.00000004898
99999.99999986477
100000.0000003685
99999.99999898009
100000.00000286421
99999.99999176258
100000.00002433958
99999.999925875
100000.00023271094
99999.99924808685
100000.00249290006
99999.9915492038
100000.02919255759
99999.8975308069
100000.3647152915
99998.6854730253
100004.76636582833
99984.55269927908
99944.23088507916
105886.92717651249
191421.06021892285
450027.33036691963
768234.8212207333
954795.3234614978
1.0067759064438812e6
1.0044505531138873e6
985426.3558872776
957675.6570221928
920922.2685809494
872041.8130513023
807609.464521408
719497.0316087748
609529.0121043329
100000.0
100000.0
100000.0
100000.0
99999.99999999988
99999.99999999988
99999.99999999981
99999.99999999988
99999.99999999977
99999.99999999993
99999.9999999995
100000.00000000019
99999.99999999838
100000.00000000367
99999.99999998823
100000.0000000325
99999.99999990611
100000.00000026755
99999.99999923045
100000.00000222781
99999.99999347325
100000.0000193622
99999.99994174995
100000.00017770169
99999.99945056318
100000.00171980563
99999.99455815948
100000.01737852865
99999.9440793823
100000.18102151764
99999.41186250745
100001.89016588432
99994.93625427161
99979.67636848855
101002.60339805254
139980.97411681808
325746.45431512716
636465.8838541051
878025.1018381523
970417.7837148597
980718.2018694435
963038.6015395578
933768.6292560778
895253.0112121955
845749.2696190078
783165.3805937051
702990.910376076
607853.0851390177
100000.0
100000.0
100000.0
100000.0
100000.0
100000.0
100000.0
100000.0
100000.0
99999.99999999987
99999.99999999975
100000.00000000016
99999.99999999907
100000.00000000156
99999.9999999939
100000.0000000159
99999.99999995194
100000.00000013752
99999.99999960266
100000.0000011421
99999.99999670978
100000.00000947656
99999.99997270096
100000.00007846557
99999.99977574238
100000.00063351948
99999.99824819811
100000.0046604122
99999.98847994338
100000.02418466788
99999.97183559787
99999.88588373436
100001.42565726416
99987.19770592169
100025.6251532564
112943.11626241238
223758.119792874
491035.55582969304
772447.1913850983
918763.3346627933
953238.691858115
941606.8922320735
912827.161934985
873957.4126029764
825171.3739110649
765550.5811429454
692878.265776205
609649.7522787527
100000.0
100000.0
100000.0
100000.0
100000.0
100000.0
100000.0
100000.0
100000.0
99999.99999999988
99999.99999999975
99999.99999999988
99999.99999999955
100000.00000000022
99999.99999999741
100000.00000000586
99999.99999998148
100000.00000005156
99999.99999985233
100000.00000041048
99999.99999887052
100000.00000303901
99999.99999204284
100000.00001993163
99999.99995376097
100000.00009121289
99999.99989548045
99999.9997031499
100000.00311805724
99999.98244498765
100000.0831305942
99999.63526586132
100001.5483459105
99994.2353388344
99965.30125564808
102771.1035258338
154217.16565996784
349646.24918249185
637731.7336088822
843023.5141993026
916959.2401584224
919335.5282748806
894188.0980557115
856431.1958902646
809243.1446881717
752975.1713747968
686892.6351439005
613134.0365438602
100000.0
100000.0
100000.0
100000.0
100000.0
100000.0