# vtk DataFile Version 2.0
JuliaCFD
ASCII
DATASET UNSTRUCTURED_GRID

POINTS 32898 float
0.0 0.0 -0.05
0.0125 0.0 -0.05
0.025 0.0 -0.05
0.0375 0.0 -0.05
0.05 0.0 -0.05
0.0625 0.0 -0.05
0.075 0.0 -0.05
0.0875 0.0 -0.05
0.1 0.0 -0.05
0.1125 0.0 -0.05
0.125 0.0 -0.05
0.1375 0.0 -0.05
0.15 0.0 -0.05
0.1625 0.0 -0.05
0.175 0.0 -0.05
0.1875 0.0 -0.05
0.2 0.0 -0.05
0.2125 0.0 -0.05
0.225 0.0 -0.05
0.2375 0.0 -0.05
0.25 0.0 -0.05
0.2625 0.0 -0.05
0.275 0.0 -0.05
0.2875 0.0 -0.05
0.3 0.0 -0.05
0.3125 0.0 -0.05
0.325 0.0 -0.05
0.3375 0.0 -0.05
0.35 0.0 -0.05
0.3625 0.0 -0.05
0.375 0.0 -0.05
0.3875 0.0 -0.05
0.4 0.0 -0.05
0.4125 0.0 -0.05
0.425 0.0 -0.05
0.4375 0.0 -0.05
0.45 0.0 -0.05
0.4625 0.0 -0.05
0.475 0.0 -0.05
0.4875 0.0 -0.05
0.5 0.0 -0.05
0.5125 0.0 -0.05
0.525 0.0 -0.05
0.5375 0.0 -0.05
0.55 0.0 -0.05
0.5625 0.0 -0.05
0.575 0.0 -0.05
0.5875 0.0 -0.05
0.6 0.0 -0.05
0.0 0.0125 -0.05
0.0125 0.0125 -0.05
0.025 0.0125 -0.05
0.0375 0.0125 -0.05
0.05 0.0125 -0.05
0.0625 0.0125 -0.05
0.075 0.0125 -0.05
0.0875 0.0125 -0.05
0.1 0.0125 -0.05
0.1125 0.0125 -0.05
0.125 0.0125 -0.05
0.1375 0.0125 -0.05
0.15 0.0125 -0.05
0.1625 0.0125 -0.05
0.175 0.0125 -0.05
0.1875 0.0125 -0.05
0.2 0.0125 -0.05
0.2125 0.0125 -0.05
0.225 0.0125 -0.05
0.2375 0.0125 -0.05
0.25 0.0125 -0.05
0.2625 0.0125 -0.05
0.275 0.0125 -0.05
0.2875 0.0125 -0.05
0.3 0.0125 -0.05
0.3125 0.0125 -0.05
0.325 0.0125 -0.05
0.3375 0.0125 -0.05
0.35 0.0125 -0.05
0.3625 0.0125 -0.05
0.375 0.0125 -0.05
0.3875 0.0125 -0.05
0.4 0.0125 -0.05
0.4125 0.0125 -0.05
0.425 0.0125 -0.05
0.4375 0.0125 -0.05
0.45 0.0125 -0.05
0.4625 0.0125 -0.05
0.475 0.0125 -0.05
0.4875 0.0125 -0.05
0.5 0.0125 -0.05
0.5125 0.0125 -0.05
0.525 0.0125 -0.05
0.5375 0.0125 -0.05
0.55 0.0125 -0.05
0.5625 0.0125 -0.05
0.575 0.0125 -0.05
0.5875 0.0125 -0.05
0.6 0.0125 -0.05
0.0 0.025 -0.05
0.0125 0.025 -0.05
0.025 0.025 -0.05
0.0375 0.025 -0.05
0.05 0.025 -0.05
0.0625 0.025 -0.05
0.075 0.025 -0.05
0.0875 0.025 -0.05
0.1 0.025 -0.05
0.1125 0.025 -0.05
0.125 0.025 -0.05
0.1375 0.025 -0.05
0.15 0.025 -0.05
0.1625 0.025 -0.05
0.175 0.025 -0.05
0.1875 0.025 -0.05
0.2 0.025 -0.05
0.2125 0.025 -0.05
0.225 0.025 -0.05
0.2375 0.025 -0.05
0.25 0.025 -0.05
0.2625 0.025 -0.05
0.275 0.025 -0.05
0.2875 0.025 -0.05
0.3 0.025 -0.05
0.3125 0.025 -0.05
0.325 0.025 -0.05
0.3375 0.025 -0.05
0.35 0.025 -0.05
0.3625 0.025 -0.05
0.375 0.025 -0.05
0.3875 0.025 -0.05
0.4 0.025 -0.05
0.4125 0.025 -0.05
0.425 0.025 -0.05
0.4375 0.025 -0.05
0.45 0.025 -0.05
0.4625 0.025 -0.05
0.475 0.025 -0.05
0.4875 0.025 -0.05
0.5 0.025 -0.05
0.5125 0.025 -0.05
0.525 0.025 -0.05
0.5375 0.025 -0.05
0.55 0.025 -0.05
0.5625 0.025 -0.05
0.575 0.025 -0.05
0.5875 0.025 -0.05
0.6 0.025 -0.05
0.0 0.0375 -0.05
0.0125 0.0375 -0.05
0.025 0.0375 -0.05
0.0375 0.0375 -0.05
0.05 0.0375 -0.05
0.0625 0.0375 -0.05
0.075 0.0375 -0.05
0.0875 0.0375 -0.05
0.1 0.0375 -0.05
0.1125 0.0375 -0.05
0.125 0.0375 -0.05
0.1375 0.0375 -0.05
0.15 0.0375 -0.05
0.1625 0.0375 -0.05
0.175 0.0375 -0.05
0.1875 0.0375 -0.05
0.2 0.0375 -0.05
0.2125 0.0375 -0.05
0.225 0.0375 -0.05
0.2375 0.0375 -0.05
0.25 0.0375 -0.05
0.2625 0.0375 -0.05
0.275 0.0375 -0.05
0.2875 0.0375 -0.05
0.3 0.0375 -0.05
0.3125 0.0375 -0.05
0.325 0.0375 -0.05
0.3375 0.0375 -0.05
0.35 0.0375 -0.05
0.3625 0.0375 -0.05
0.375 0.0375 -0.05
0.3875 0.0375 -0.05
0.4 0.0375 -0.05
0.4125 0.0375 -0.05
0.425 0.0375 -0.05
0.4375 0.0375 -0.05
0.45 0.0375 -0.05
0.4625 0.0375 -0.05
0.475 0.0375 -0.05
0.4875 0.0375 -0.05
0.5 0.0375 -0.05
0.5125 0.0375 -0.05
0.525 0.0375 -0.05
0.5375 0.0375 -0.05
0.55 0.0375 -0.05
0.5625 0.0375 -0.05
0.575 0.0375 -0.05
0.5875 0.0375 -0.05
0.6 0.0375 -0.05
0.0 0.05 -0.05
0.0125 0.05 -0.05
0.025 0.05 -0.05
0.0375 0.05 -0.05
0.05 0.05 -0.05
0.0625 0.05 -0.05
0.075 0.05 -0.05
0.0875 0.05 -0.05
0.1 0.05 -0.05
0.1125 0.05 -0.05
0.125 0.05 -0.05
0.1375 0.05 -0.05
0.15 0.05 -0.05
0.1625 0.05 -0.05
0.175 0.05 -0.05
0.1875 0.05 -0.05
0.2 0.05 -0.05
0.2125 0.05 -0.05
0.225 0.05 -0.05
0.2375 0.05 -0.05
0.25 0.05 -0.05
0.2625 0.05 -0.05
0.275 0.05 -0.05
0.2875 0.05 -0.05
0.3 0.05 -0.05
0.3125 0.05 -0.05
0.325 0.05 -0.05
0.3375 0.05 -0.05
0.35 0.05 -0.05
0.3625 0.05 -0.05
0.375 0.05 -0.05
0.3875 0.05 -0.05
0.4 0.05 -0.05
0.4125 0.05 -0.05
0.425 0.05 -0.05
0.4375 0.05 -0.05
0.45 0.05 -0.05
0.4625 0.05 -0.05
0.475 0.05 -0.05
0.4875 0.05 -0.05
0.5 0.05 -0.05
0.5125 0.05 -0.05
0.525 0.05 -0.05
0.5375 0.05 -0.05
0.55 0.05 -0.05
0.5625 0.05 -0.05
0.575 0.05 -0.05
0.5875 0.05 -0.05
0.6 0.05 -0.05
0.0 0.0625 -0.05
0.0125 0.0625 -0.05
0.025 0.0625 -0.05
0.0375 0.0625 -0.05
0.05 0.0625 -0.05
0.0625 0.0625 -0.05
0.075 0.0625 -0.05
0.0875 0.0625 -0.05
0.1 0.0625 -0.05
0.1125 0.0625 -0.05
0.125 0.0625 -0.05
0.1375 0.0625 -0.05
0.15 0.0625 -0.05
0.1625 0.0625 -0.05
0.175 0.0625 -0.05
0.1875 0.0625 -0.05
0.2 0.0625 -0.05
0.2125 0.0625 -0.05
0.225 0.0625 -0.05
0.2375 0.0625 -0.05
0.25 0.0625 -0.05
0.2625 0.0625 -0.05
0.275 0.0625 -0.05
0.2875 0.0625 -0.05
0.3 0.0625 -0.05
0.3125 0.0625 -0.05
0.325 0.0625 -0.05
0.3375 0.0625 -0.05
0.35 0.0625 -0.05
0.3625 0.0625 -0.05
0.375 0.0625 -0.05
0.3875 0.0625 -0.05
0.4 0.0625 -0.05
0.4125 0.0625 -0.05
0.425 0.0625 -0.05
0.4375 0.0625 -0.05
0.45 0.0625 -0.05
0.4625 0.0625 -0.05
0.475 0.0625 -0.05
0.4875 0.0625 -0.05
0.5 0.0625 -0.05
0.5125 0.0625 -0.05
0.525 0.0625 -0.05
0.5375 0.0625 -0.05
0.55 0.0625 -0.05
0.5625 0.0625 -0.05
0.575 0.0625 -0.05
0.5875 0.0625 -0.05
0.6 0.0625 -0.05
0.0 0.075 -0.05
0.0125 0.075 -0.05
0.025 0.075 -0.05
0.0375 0.075 -0.05
0.05 0.075 -0.05
0.0625 0.075 -0.05
0.075 0.075 -0.05
0.0875 0.075 -0.05
0.1 0.075 -0.05
0.1125 0.075 -0.05
0.125 0.075 -0.05
0.1375 0.075 -0.05
0.15 0.075 -0.05
0.1625 0.075 -0.05
0.175 0.075 -0.05
0.1875 0.075 -0.05
0.2 0.075 -0.05
0.2125 0.075 -0.05
0.225 0.075 -0.05
0.2375 0.075 -0.05
0.25 0.075 -0.05
0.2625 0.075 -0.05
0.275 0.075 -0.05
0.2875 0.075 -0.05
0.3 0.075 -0.05
0.3125 0.075 -0.05
0.325 0.075 -0.05
0.3375 0.075 -0.05
0.35 0.075 -0.05
0.3625 0.075 -0.05
0.375 0.075 -0.05
0.3875 0.075 -0.05
0.4 0.075 -0.05
0.4125 0.075 -0.05
0.425 0.075 -0.05
0.4375 0.075 -0.05
0.45 0.075 -0.05
0.4625 0.075 -0.05
0.475 0.075 -0.05
0.4875 0.075 -0.05
0.5 0.075 -0.05
0.5125 0.075 -0.05
0.525 0.075 -0.05
0.5375 0.075 -0.05
0.55 0.075 -0.05
0.5625 0.075 -0.05
0.575 0.075 -0.05
0.5875 0.075 -0.05
0.6 0.075 -0.05
0.0 0.0875 -0.05
0.0125 0.0875 -0.05
0.025 0.0875 -0.05
0.0375 0.0875 -0.05
0.05 0.0875 -0.05
0.0625 0.0875 -0.05
0.075 0.0875 -0.05
0.0875 0.0875 -0.05
0.1 0.0875 -0.05
0.1125 0.0875 -0.05
0.125 0.0875 -0.05
0.1375 0.0875 -0.05
0.15 0.0875 -0.05
0.1625 0.0875 -0.05
0.175 0.0875 -0.05
0.1875 0.0875 -0.05
0.2 0.0875 -0.05
0.2125 0.0875 -0.05
0.225 0.0875 -0.05
0.2375 0.0875 -0.05
0.25 0.0875 -0.05
0.2625 0.0875 -0.05
0.275 0.0875 -0.05
0.2875 0.0875 -0.05
0.3 0.0875 -0.05
0.3125 0.0875 -0.05
0.325 0.0875 -0.05
0.3375 0.0875 -0.05
0.35 0.0875 -0.05
0.3625 0.0875 -0.05
0.375 0.0875 -0.05
0.3875 0.0875 -0.05
0.4 0.0875 -0.05
0.4125 0.0875 -0.05
0.425 0.0875 -0.05
0.4375 0.0875 -0.05
0.45 0.0875 -0.05
0.4625 0.0875 -0.05
0.475 0.0875 -0.05
0.4875 0.0875 -0.05
0.5 0.0875 -0.05
0.5125 0.0875 -0.05
0.525 0.0875 -0.05
0.5375 0.0875 -0.05
0.55 0.0875 -0.05
0.5625 0.0875 -0.05
0.575 0.0875 -0.05
0.5875 0.0875 -0.05
0.6 0.0875 -0.05
0.0 0.1 -0.05
0.0125 0.1 -0.05
0.025 0.1 -0.05
0.0375 0.1 -0.05
0.05 0.1 -0.05
0.0625 0.1 -0.05
0.075 0.1 -0.05
0.0875 0.1 -0.05
0.1 0.1 -0.05
0.1125 0.1 -0.05
0.125 0.1 -0.05
0.1375 0.1 -0.05
0.15 0.1 -0.05
0.1625 0.1 -0.05
0.175 0.1 -0.05
0.1875 0.1 -0.05
0.2 0.1 -0.05
0.2125 0.1 -0.05
0.225 0.1 -0.05
0.2375 0.1 -0.05
0.25 0.1 -0.05
0.2625 0.1 -0.05
0.275 0.1 -0.05
0.2875 0.1 -0.05
0.3 0.1 -0.05
0.3125 0.1 -0.05
0.325 0.1 -0.05
0.3375 0.1 -0.05
0.35 0.1 -0.05
0.3625 0.1 -0.05
0.375 0.1 -0.05
0.3875 0.1 -0.05
0.4 0.1 -0.05
0.4125 0.1 -0.05
0.425 0.1 -0.05
0.4375 0.1 -0.05
0.45 0.1 -0.05
0.4625 0.1 -0.05
0.475 0.1 -0.05
0.4875 0.1 -0.05
0.5 0.1 -0.05
0.5125 0.1 -0.05
0.525 0.1 -0.05
0.5375 0.1 -0.05
0.55 0.1 -0.05
0.5625 0.1 -0.05
0.575 0.1 -0.05
0.5875 0.1 -0.05
0.6 0.1 -0.05
0.0 0.1125 -0.05
0.0125 0.1125 -0.05
0.025 0.1125 -0.05
0.0375 0.1125 -0.05
0.05 0.1125 -0.05
0.0625 0.1125 -0.05
0.075 0.1125 -0.05
0.0875 0.1125 -0.05
0.1 0.1125 -0.05
0.1125 0.1125 -0.05
0.125 0.1125 -0.05
0.1375 0.1125 -0.05
0.15 0.1125 -0.05
0.1625 0.1125 -0.05
0.175 0.1125 -0.05
0.1875 0.1125 -0.05
0.2 0.1125 -0.05
0.2125 0.1125 -0.05
0.225 0.1125 -0.05
0.2375 0.1125 -0.05
0.25 0.1125 -0.05
0.2625 0.1125 -0.05
0.275 0.1125 -0.05
0.2875 0.1125 -0.05
0.3 0.1125 -0.05
0.3125 0.1125 -0.05
0.325 0.1125 -0.05
0.3375 0.1125 -0.05
0.35 0.1125 -0.05
0.3625 0.1125 -0.05
0.375 0.1125 -0.05
0.3875 0.1125 -0.05
0.4 0.1125 -0.05
0.4125 0.1125 -0.05
0.425 0.1125 -0.05
0.4375 0.1125 -0.05
0.45 0.1125 -0.05
0.4625 0.1125 -0.05
0.475 0.1125 -0.05
0.4875 0.1125 -0.05
0.5 0.1125 -0.05
0.5125 0.1125 -0.05
0.525 0.1125 -0.05
0.5375 0.1125 -0.05
0.55 0.1125 -0.05
0.5625 0.1125 -0.05
0.575 0.1125 -0.05
0.5875 0.1125 -0.05
0.6 0.1125 -0.05
0.0 0.125 -0.05
0.0125 0.125 -0.05
0.025 0.125 -0.05
0.0375 0.125 -0.05
0.05 0.125 -0.05
0.0625 0.125 -0.05
0.075 0.125 -0.05
0.0875 0.125 -0.05
0.1 0.125 -0.05
0.1125 0.125 -0.05
0.125 0.125 -0.05
0.1375 0.125 -0.05
0.15 0.125 -0.05
0.1625 0.125 -0.05
0.175 0.125 -0.05
0.1875 0.125 -0.05
0.2 0.125 -0.05
0.2125 0.125 -0.05
0.225 0.125 -0.05
0.2375 0.125 -0.05
0.25 0.125 -0.05
0.2625 0.125 -0.05
0.275 0.125 -0.05
0.2875 0.125 -0.05
0.3 0.125 -0.05
0.3125 0.125 -0.05
0.325 0.125 -0.05
0.3375 0.125 -0.05
0.35 0.125 -0.05
0.3625 0.125 -0.05
0.375 0.125 -0.05
0.3875 0.125 -0.05
0.4 0.125 -0.05
0.4125 0.125 -0.05
0.425 0.125 -0.05
0.4375 0.125 -0.05
0.45 0.125 -0.05
0.4625 0.125 -0.05
0.475 0.125 -0.05
0.4875 0.125 -0.05
0.5 0.125 -0.05
0.5125 0.125 -0.05
0.525 0.125 -0.05
0.5375 0.125 -0.05
0.55 0.125 -0.05
0.5625 0.125 -0.05
0.575 0.125 -0.05
0.5875 0.125 -0.05
0.6 0.125 -0.05
0.0 0.1375 -0.05
0.0125 0.1375 -0.05
0.025 0.1375 -0.05
0.0375 0.1375 -0.05
0.05 0.1375 -0.05
0.0625 0.1375 -0.05
0.075 0.1375 -0.05
0.0875 0.1375 -0.05
[...]
CELL_DATA 16128
SCALARS P float 1
LOOKUP_TABLE default
100000.00000005995
99999.99999983574
100000.00000044519
99999.99999878967
100000.00000328639
99999.99999107205
100000.00002424444
99999.99993416344
100000.00017874743
99999.99951476378
100000.00131702052
99999.99642598061
100000.00969703807
99999.97369534822
100000.0713389904
99999.80657742593
100000.52426200328
99998.57962809925
100003.84523440692
99989.61968389033
100027.48550319854
99939.67298538079
99837.89412489755
122034.41465563906
269803.0965265219
566353.495793333
854740.3849903737
997797.4505944892
1.0385215905639057e6
1.0536038628310147e6
1.065388463565419e6
1.076580661309117e6
1.0873465706180679e6
1.097672637366636e6
1.107545556376548e6
1.1169537481336915e6
1.1258825515463029e6
1.1343125935179375e6
1.1422162468915803e6
1.1495643814923982e6
1.1563059969065778e6
1.1624297385405302e6
1.1677866821830324e6
1.172619573302539e6
1.1760054074216466e6
1.1804833413021476e6
1.1783133629242706e6
1.1922813164422791e6
100000.0000000593
99999.99999983763
100000.0000004398
99999.9999988035
100000.00000324957
99999.99999116964
100000.00002398697
99999.99993484284
100000.00017695964
99999.99951946149
100000.00130468942
99999.9964583445
100000.00961201079
99999.97391921224
100000.07074798344
99999.80814031405
100000.52014140664
99998.5903298967
100003.818581709
99989.67933426258
100027.38456793562
99939.76968695853
99834.15645112998
121509.26057673918
268346.5292578633
565880.8898970986
857820.0414795334
1.0041970427099545e6
1.0465062309969947e6
1.0622849895179223e6
1.074454815086955e6
1.0859059784669755e6
1.0968829535361785e6
1.1074092842821528e6
1.1174880589325812e6
1.1271134672076365e6
1.1362711567339406e6
1.1449390605941387e6
1.1530849310829272e6
1.160673411168009e6
1.1676459359918474e6
1.173981837143363e6
1.1795223853796439e6
1.1844979547787702e6
1.1879758613997397e6
1.1924940760808769e6
1.1902505888212393e6
1.204423607012498e6
100000.00000005771
99999.99999984246
100000.00000042729
99999.99999883713
100000.00000316011
99999.99999140683
100000.00002335932
99999.9999364961
100000.00017262192
99999.99953078773
100000.00127528318
99999.99653416107
100000.00941823097
99999.97440897956
100000.06952835832
99999.81111634374
100000.51308585245
99998.60635796646
100003.78450490827
99989.74407242775
100027.2786043917
99940.08669775697
99824.8022468153
120260.52395804219
263588.62211132195
558624.296250893
851500.8385390396
1.0000659511566045e6
1.0432043949760951e6
1.0589924234463142e6
1.071025655802811e6
1.082319852578644e6
1.0931292269776938e6
1.103476205409649e6
1.11336355113111e6
1.122786340359076e6
1.1317319329672384e6
1.1401805336747984e6
1.1481027705659694e6
1.1554665337901905e6
1.1622178427453313e6
1.1683396876418155e6
1.1736830661199153e6
1.1784753992492098e6
1.1818167876507142e6
1.1861962116461387e6
1.1838846206485706e6
1.1982485096789831e6
100000.00000005489
99999.99999984988
100000.00000040751
99999.99999888994
100000.00000301849
99999.99999178482
100000.00002235366
99999.99993916642
100000.00016555499
99999.99954942375
100000.0012263474
99999.99666203598
100000.0090859895
99999.97526639879
100000.06733316377
99999.81668403522
100000.49911846762
99998.64095743265
100003.69997502338
99989.94738054925
100026.79281455251
99941.32699342015
99814.73800592529
118366.5567804637
256153.89877956337
547540.8351910997
842920.5202307211
996116.8385612769
1.0412878610899601e6
1.05747870931607e6
1.0695745474789613e6
1.0808686466700784e6
1.091656885112814e6
1.1019731339004375e6
1.1118268236257534e6
1.121217843196631e6
1.1301372825235482e6
1.1385683200912315e6
1.146484078176267e6
1.153854051483743e6
1.160625900360695e6
1.1667808987360124e6
1.1721731700810946e6
1.1770145954717284e6
1.1804281582370065e6
1.184837040260916e6
1.1825468832399445e6
1.1972844364770781e6
100000.00000005114
99999.99999986019
100000.00000038024
99999.9999989636
100000.00000282054
99999.99999231736
100000.00002092321
99999.99994300217
100000.00015528976
99999.99957683604
100000.00115332146
99999.99685605269
100000.00857205871
99999.97662325212
100000.06376391862
99999.82603556612
100000.47472348767
99998.70429430762
100003.53638003355
99990.36679196075
100025.73379436193
99943.73394184952
99810.42191804462
115974.42146027574
246267.998751705
532473.4704686711
831039.8282578016
990502.684333803
1.0384065594423958e6
1.055016802980966e6
1.0670630605005187e6
1.0782424213668483e6
1.0889000726405028e6
1.0990766561069984e6
1.108784713835652e6
1.1180268616292246e6
1.1267968062999411e6
1.135080234192536e6
1.1428528215412702e6
1.1500861456266353e6
1.156730684453939e6
1.162767423664184e6
1.1680572073950847e6
1.1727982812937913e6
1.17614801846209e6
1.180463239348289e6
1.1781038543731496e6
1.193251228643154e6
100000.00000004642
99999.99999987282
100000.00000034545
99999.99999905813
100000.00000256386
99999.99999301352
100000.0000190366
99999.99994810947
100000.00014147689
99999.9996141514
100000.00105263437
99999.9971273789
100000.00784195206
99999.97858481019
100000.05850287585
99999.8401195203
100000.4370988409
99998.80456887596
100003.26988877876
99991.0713179565
100023.90678227542
99947.69929968359
99816.53192643072
113269.00465600498
234243.69058845533
513507.97026574635
815714.6904125047
983252.2474070528
1.0348797253037181e6
1.0521022673699192e6
1.0640995160453895e6
1.0751411029375384e6
1.0856437715054867e6
1.0956567741179033e6
1.1051961302983365e6
1.1142677149140814e6
1.1228685266401651e6
1.1309874959222418e6
1.1386036038795107e6
1.1456911626314293e6
1.1522040314458325e6
1.1581229719475622e6
1.1633157366535233e6
1.16796542604806e6
1.171264380669517e6
1.1755016269024012e6
1.173072575177435e6
1.1887506541880146e6
100000.00000004093
99999.99999988801
100000.00000030363
99999.99999917267
100000.0000022512
99999.99999386787
100000.00001670435
99999.99995447503
100000.00012410904
99999.99966152152
100000.00092349053
99999.9974792921
100000.0068835133
99999.98119354277
100000.05140719225
99999.85940428103
100000.38473455816
99998.94659836318
100002.88521898145
99992.10936892296
100021.16098859807
99953.63700419207
99834.44346398095
110453.5604730988
220469.3844810824
490772.8826760873
796670.5274672823
974059.365483523
1.0305488756277409e6
1.04862363578884e6
1.060563938844399e6
1.0714239468855052e6
1.0817229969147532e6
1.0915213153437541e6
1.1008379952953882e6
1.1096818223369368e6
1.118052951498553e6
1.1259436054761214e6
1.1333362995982761e6
1.140208499155081e6
1.1465181374229114e6
1.152246731623799e6
1.157270587016138e6
1.1617596891054166e6
1.1649450990873112e6
1.1690538606717596e6
1.1665024240986425e6
1.1828205161212338e6
100000.0000000347
99999.99999990551
100000.00000025603
99999.99999930352
100000.00000189214
99999.99999485404
100000.00001399609
99999.999961916
100000.00010366515
99999.99971769849
100000.00076911053
99999.99790357782
100000.00571738397
99999.9843986506
100000.04259815886
99999.88361354197
100000.31821110933
99999.12935238119
100002.38341288267
99993.48387842964
100017.46784364684
99961.76985633181
99861.66606796738
107731.36733470352
205408.87824714542
464473.50123532204
773630.5606647099
962596.7774328421
1.0253022187281e6
1.0445694968861337e6
1.0564697963530095e6
1.0671124013894515e6
1.0771638042558113e6
1.086699768702315e6
1.0957424040188647e6
1.104303110822957e6
1.112385050760821e6
1.1199837679939386e6
1.1270855485335772e6
1.1336715197181494e6
1.1397045223501641e6
1.145168180969134e6
1.149949135788354e6
1.1542071778382845e6
1.1572148255199865e6
1.1611452977348797e6
1.1584135562843995e6
1.175515555924532e6
100000.00000002788
99999.99999992417
100000.00000020493
99999.99999944429
100000.00000150435
99999.99999592407
100000.00001104383
99999.99997006508
100000.0000811616
99999.99977987197
100000.00059725581
99999.99837883412
100000.00440245662
99999.98803849317
100000.03251800666
99999.91154221317
100000.24079637948
99999.34402198014
100001.78803769805
99995.13260630809
100012.98268205892
99971.92168214709
99892.66027831184
105285.01810496849
189596.61017287808
434912.8259475017
746319.9128367899
948461.9415154678
1.0189818181979026e6
1.0399075306407053e6
1.0518099835925563e6
1.0622009324003959e6
1.0719574920182356e6
1.081178333916341e6
1.08988860091381e6
1.098101646600067e6
1.1058229926848374e6
1.1130509629492485e6
1.1197752259927767e6
1.125980442544619e6
1.1316345323292867e6
1.136724056903771e6
1.141147218713621e6
1.145056931295645e6
1.1477703904878784e6
1.1514200655024776e6
1.148398294659097e6
1.1664469200386875e6
100000.00000002116
99999.99999994277
100000.00000015344
99999.99999958691
100000.00000111069
99999.99999701223
100000.00000803395
99999.99997839714
100000.00005808097
99999.99984385405
100000.00041975592
99999.9988716416
100000.00303313104
99999.99184648936
100000.02191922387
99999.94106748576
100000.15847426254
99999.57375569538
100001.14647929005
99996.92281321254
100008.0664273117
99983.37856827212
99920.92434033703
103254.9974442765
173625.98441437053
402518.33483176475
714496.8272485237
931175.2427520718
1.0113799473452306e6
1.034599022006202e6
1.0465837140827032e6
1.0566933024664435e6
1.0661060403529957e6
1.0749552076924662e6
1.0832692684652158e6
1.0910624959340598e6
1.0983415776602859e6
1.1051064230246958e6
1.1113489903807007e6
1.1170566967712226e6
1.12220227045013e6
1.1267761366401317e6
1.130690062922427e6
1.1340957589858565e6
1.1363610245923284e6
1.1395960298172797e6
1.1361444734324242e6
1.155361034780849e6
100000.00000001484
99999.99999996065
100000.00000010467
99999.99999972185
100000.00000073815
99999.99999804313
100000.00000518105
99999.99998629994
100000.00003617226
99999.99990464695
100000.00025090783
99999.99934107292
100000.00172666126
99999.9954864759
100000.01176621701
99999.96942095752
100000.07919581239
99999.79570732586
100000.52438828311
99998.66609789623
100003.24937580845
99994.8982286316
99941.58357686944
101721.20480682318
158126.64626224374
367866.80009106506
677994.0862935216
910178.168219197
1.0022179850107154e6
1.0285886373428727e6
1.0407913461073781e6
1.0505977249596133e6
1.0596162711505324e6
1.068033293626323e6
1.075881404240533e6
1.0831742562123793e6
1.0899176533206364e6
1.0961106902787113e6
1.101744834669784e6
1.1068070965709328e6
1.1112713167243407e6
1.1151277925685341e6
1.118297054114078e6
1.1209269629303305e6
1.1224335412629491e6
1.1249263924732704e6
1.1206875764832157e6
1.1412481597273813e6
100000.00000000915
99999.99999997628
100000.00000006173
99999.99999984055
100000.00000041163
99999.9999989442
100000.00000269283
99999.99999317704
100000.00001715022
99999.99995731405
100000.00010494333
99999.99974603963
100000.00060183897
99999.99861452596
100000.00305611463
99999.99370770728
100000.0113771197
99999.98537736181
99999.99315963587
100000.154363195
99999.13108476793
100004.92289765735
99953.31415284584
100692.44145447708
143727.50695069143
331702.198411059
636772.3912464769
884843.1151245475
991123.9097673849
1.0217940940096688e6
1.0344328983086607e6
1.0439282226695889e6
1.0525025047140263e6
1.0604240223575218e6
1.0677315188336982e6
1.0744360227513008e6
1.0805395221109532e6
1.0860367347918437e6
1.0909144984366028e6
1.0951549532879135e6
1.098728806185996e6
1.10162356520028e6
1.103768466677676e6
1.1053174284737231e6
1.1057498532929146e6
1.10721569137163e6
1.1019040009955873e6
1.1242315438347033e6
100000.00000000441
99999.99999998898
100000.0000000271
99999.99999993554
100000.00000015082
99999.99999965917
100000.00000073144
99999.99999856098
100000.00000236141
99999.99999796317
99999.99999312991
100000.00005385453
99999.9997536897
100000.00095380112
99999.9965971943
100000.01156257739
99999.96195463109
100000.12237655383
99999.61285661126
100001.21036366558
99996.23267247605
100011.97795237025
99958.58779332027
100108.85672887716
131003.70687670172
294940.4993593197
590983.5264722502
854499.4862277064
977607.6811214659
1.0140910413767528e6
1.0275044139779663e6
1.0367045226200114e6
1.044787550922798e6
1.0521490270443843e6
1.058838005276687e6
1.064860400871335e6
1.0702101214737857e6
1.0748716616278277e6
1.0788191550467086e6
1.0820184558951883e6
1.0844203735918344e6
1.0859839030878919e6
1.086610281986997e6
1.0864007793613914e6
1.0848149321331524e6
1.0840034445373176e6
1.076019483863282e6
1.0995410832421707e6
100000.000000001
99999.99999999836
100000.00000000186
100000.00000000377
99999.99999996659
100000.00000015796
99999.99999938263
100000.00000220725
99999.99999250907
100000.00002457121
99999.99992130908
100000.00024759964
99999.99923137118
100000.00236096622
99999.99280892576
100000.02175329614
99999.93456282574
100000.1959407978
99999.41549936758
100001.73839881811
99994.84302329857
100015.14412507674
99962.01380899025
99859.9366491208
120409.6171258311
258654.2771429096
541038.4117272843
818482.3823835881
961037.7665444349
1.0052922027704542e6
1.0199922095386082e6
1.0289514760660221e6
1.036503709973928e6
1.0432421550257175e6
1.0492345199133072e6
1.0544792037175973e6
1.0589570349336104e6
1.0626354377078288e6
1.0654669146214346e6
1.0673900085668045e6
1.068324862110896e6
1.0681941290295583e6
1.066868688275357e6
1.064440020520582e6
1.0604308405143935e6
1.0571173301889556e6
1.0465125490336254e6
1.0728636414918588e6
99999.99999999888
100000.00000000434
99999.99999998635
100000.00000004485
99999.99999985826
100000.00000044201
99999.99999864062
100000.00000413711
99999.99998751932
100000.00003738597
99999.99988867245
100000.00032986041
99999.99902674824
100000.00286127687
99999.99161382645
100000.0245150428
99999.92849507421
100000.20817261699
99999.3949005568
100001.75638648025
99994.9154991044
100014.42448473671
99967.75622220304
99815.29252261764
112207.60840861904
224029.97326154626
487671.111218077
776209.3101852703
940624.181205251
995119.0729609821
1.0118636075912925e6
1.0206972959013209e6
1.0276931005926454e6
1.033750631638893e6
1.0389718057953947e6
1.0433456886010318e6
1.0468338465630206e6
1.0493768196208456e6
1.0508896579043528e6
1.0512579093133812e6
1.050321173491817e6
1.0478817904533388e6
1.0436140501887971e6
1.0372650730136874e6
1.0278078762501352e6
1.0166360927956136e6
994328.0481888513
1.0122833269601628e6
99999.9999999977
100000.00000000707
99999.99999997919
100000.00000006235
99999.99999981583
100000.00000054184
99999.99999841477
100000.00000461764
99999.99998659891
100000.00003875805
99999.9998882474
100000.00032133405
99999.9990783498
100000.00263741333
99999.99246865422
100000.02146432275
99999.93893804679
100000.17341361601
99999.508309823
100001.39168101498
99996.07593912164
100010.7833555704
99977.39470755997
99859.07672689912
106412.34755154476
192291.50482598992
431985.83308424347
727287.5864085684
915416.7597698367
983164.9086629398
1.0030523457264004e6
1.0119699661340624e6
1.0184072592325758e6
1.0237359357222499e6
1.0281201089716371e6
1.0315401920322645e6
1.0339332949818783e6
1.0352048867586431e6
1.0352205015620653e6
1.0337975862232446e6
1.0306844141000059e6
1.0255592981896761e6
1.0179539787013126e6
1.0074854952632729e6
993158.9412627217
976690.5565561287
948973.7050688778
972012.9072648087
99999.99999999742
100000.00000000754
99999.99999997835
100000.00000006222
99999.99999982183
100000.00000050789
99999.99999855753
100000.0000040836
99999.99998847372
100000.00003243519
99999.99990899878
100000.00025454958
99999.99929014337
100000.00197331312
99999.99453259054
100000.01509504514
99999.95848251095
100000.11371290521
99999.69000671778
100000.84034527741
99997.74279968449
100005.8378762785
99989.32511927109
99914.87474861786
102776.64986604419
164585.33261101044
375470.9285802576
671650.2989586415
884331.9975139673
968849.6123580623
993436.3466533356
1.002790698711954e6
1.0087051927020488e6
1.01327285932748e6
1.0167681963541068e6
1.0191681006148134e6
1.0203812795489503e6
1.0202688951525702e6
1.0186314710636154e6
1.0151877675625245e6
1.0095214641736124e6
1.001019267634055e6
988650.3263265048
970835.8951227942
943889.17695781
902919.7266541771
824456.4218542364
696265.744739667
99999.99999999772
100000.00000000656
99999.99999998162
100000.0000000517
99999.99999985646
100000.00000039802
99999.99999890108
100000.00000302205
99999.99999172532
100000.00002254812
99999.99993887448
100000.00016473625
99999.9995589809
100000.0011715236
99999.99691654502
100000.0080251581
99999.97940368061
100000.0519142346
99999.8722840741
100000.30343037054
99999.32015066098
100001.29154492258
100000.16627993349
99951.1890995619
100839.54926335452
141825.99293931425
319961.81417819817
609710.2298098013
846226.373240322
951371.3237986813
982805.4552884016
993163.2661935721
998649.7387487367
1.002447512552345e6
1.0050219409917714e6
1.0063600826979504e6
1.006342896703933e6
1.0047845187859491e6
1.0014208883122646e6
995868.7047735553
987554.9069246813
975615.4235107662
958616.6606835782
934337.5224852305
898241.024239254
844405.4315494354
753411.1906823529
617178.9284568764
99999.99999999811
100000.00000000506
99999.99999998655
100000.00000003664
99999.9999999013
100000.00000026442
99999.99999929589
100000.00000186029
99999.99999512878
100000.00001261453
99999.99996776794
100000.00008095992
99999.99980116816
100000.00047335384
99999.99892378061
100000.00226950379
99999.99586497796
100000.00495699837
100000.00587672657
99999.92448802637
100000.38976124948
99998.33921197806
100006.92762163177
99968.26534309074
100036.38985928085
124516.24367480841
267535.0994350304
542507.5817199041
800034.6212888646
929666.0322268778
970816.8397197707
983057.3859949717
988301.3564774899
991353.1083610982
992999.1126042141
993264.2379862788
992006.949049657
989004.6941737996
983936.7763240442
976343.460273251
965547.0669449202
950548.1025795125
929765.916352985
900880.5998779503
859660.0001145097
801180.3522444658
712405.8058869264
591856.031731196
99999.99999999882
100000.00000000298
99999.99999999165
100000.00000002197
99999.99999994328
100000.00000014438
99999.99999963758
100000.0000008893
99999.99999787452
100000.00000488195
99999.99998944721
100000.00002046478
99999.99996911341
100000.000009752
100000.00019530949
99999.99880792855
100000.0052060499
99999.98001778814
100000.07157881104
99999.75439031716
100000.81882592004
99997.32117414856
100008.60842972384
99977.50066591114
99839.00821001119
112590.73577360333
220322.30835299348
471811.14656818385
744982.4708253006
902394.112194395
956936.1524385954
972383.4664245636
977708.5127568517
980083.7218514926
980821.9268631957
980033.2640207842
977569.7343211499
973183.000685994
966516.6252346442
957068.3834239122
944119.0206288801
926645.8183232239
903118.7932336313
871434.8179360894
828127.3682506159
769649.0079963871
688024.7210944747
584836.7299768172
99999.9999999994
100000.00000000167
99999.99999999559
100000.00000001068
99999.99999997468
100000.00000005732
99999.99999987627
100000.00000023899
99999.9999996337
100000.00000016701
100000.00000195333
99999.99998771858
100000.00005347871
99999.99979695634
100000.00071668165
99999.99758356383
100000.00789229246
99999.97482789603
100000.07879681495
99999.7571155647
100000.73883744597
99997.78146328329
100006.44172497862
99986.69539119683
99868.34031326616
105369.34116231251
180243.87712047552
400124.36199524335
680865.179722783
867981.9692861614
940364.9840370112
960954.8840980134
966893.366384728
968726.6430845878
968609.3826447864
966814.7512558535
963214.8585498595
957549.735283673
949449.1997941723
938402.8032456036
923703.5360201987
904386.558148135
879087.8107513934
846052.0612554685
802650.6449735201
746519.9263601857
673092.7898606788
584743.7809368154
99999.99999999967
100000.00000000055
99999.99999999825
100000.00000000326
99999.99999999408
100000.00000000646
100000.00000000786
99999.99999990404
100000.00000046735
99999.9999981514
100000.00000661827
99999.99997764132
100000.0000726139
99999.99977093628
100000.00070606929
99999.99786566656
100000.00634025119
99999.9814727823
100000.0532602198
99999.84950838344
100000.41706146456
99998.87374005817
100002.83796475413
99996.21569722275
99929.30836498436
101695.07827924709
148677.59723864275
330553.42547440616
608358.4847474867
824758.4978676722
919963.7637307465
948433.7143085569
955830.6153780298
957352.9150225226
956469.184030158
953743.2788294984
949102.9912711867
942296.2292031294
932958.4842941274