# vtk DataFile Version 2.0
JuliaCFD
ASCII
DATASET UNSTRUCTURED_GRID

POINTS 32898 float
0.0 0.0 -0.05
0.0125 0.0 -0.05
0.025 0.0 -0.05
0.0375 0.0 -0.05
0.05 0.0 -0.05
0.0625 0.0 -0.05
0.075 0.0 -0.05
0.0875 0.0 -0.05
0.1 0.0 -0.05
0.1125 0.0 -0.05
0.125 0.0 -0.05
0.1375 0.0 -0.05
0.15 0.0 -0.05
0.1625 0.0 -0.05
0.175 0.0 -0.05
0.1875 0.0 -0.05
0.2 0.0 -0.05
0.2125 0.0 -0.05
0.225 0.0 -0.05
0.2375 0.0 -0.05
0.25 0.0 -0.05
0.2625 0.0 -0.05
0.275 0.0 -0.05
0.2875 0.0 -0.05
0.3 0.0 -0.05
0.3125 0.0 -0.05
0.325 0.0 -0.05
0.3375 0.0 -0.05
0.35 0.0 -0.05
0.3625 0.0 -0.05
0.375 0.0 -0.05
0.3875 0.0 -0.05
0.4 0.0 -0.05
0.4125 0.0 -0.05
0.425 0.0 -0.05
0.4375 0.0 -0.05
0.45 0.0 -0.05
0.4625 0.0 -0.05
0.475 0.0 -0.05
0.4875 0.0 -0.05
0.5 0.0 -0.05
0.5125 0.0 -0.05
0.525 0.0 -0.05
0.5375 0.0 -0.05
0.55 0.0 -0.05
0.5625 0.0 -0.05
0.575 0.0 -0.05
0.5875 0.0 -0.05
0.6 0.0 -0.05
0.0 0.0125 -0.05
0.0125 0.0125 -0.05
0.025 0.0125 -0.05
0.0375 0.0125 -0.05
0.05 0.0125 -0.05
0.0625 0.0125 -0.05
0.075 0.0125 -0.05
0.0875 0.0125 -0.05
0.1 0.0125 -0.05
0.1125 0.0125 -0.05
0.125 0.0125 -0.05
0.1375 0.0125 -0.05
0.15 0.0125 -0.05
0.1625 0.0125 -0.05
0.175 0.0125 -0.05
0.1875 0.0125 -0.05
0.2 0.0125 -0.05
0.2125 0.0125 -0.05
0.225 0.0125 -0.05
0.2375 0.0125 -0.05
0.25 0.0125 -0.05
0.2625 0.0125 -0.05
0.275 0.0125 -0.05
0.2875 0.0125 -0.05
0.3 0.0125 -0.05
0.3125 0.0125 -0.05
0.325 0.0125 -0.05
0.3375 0.0125 -0.05
0.35 0.0125 -0.05
0.3625 0.0125 -0.05
0.375 0.0125 -0.05
0.3875 0.0125 -0.05
0.4 0.0125 -0.05
0.4125 0.0125 -0.05
0.425 0.0125 -0.05
0.4375 0.0125 -0.05
0.45 0.0125 -0.05
0.4625 0.0125 -0.05
0.475 0.0125 -0.05
0.4875 0.0125 -0.05
0.5 0.0125 -0.05
0.5125 0.0125 -0.05
0.525 0.0125 -0.05
0.5375 0.0125 -0.05
0.55 0.0125 -0.05
0.5625 0.0125 -0.05
0.575 0.0125 -0.05
0.5875 0.0125 -0.05
0.6 0.0125 -0.05
0.0 0.025 -0.05
0.0125 0.025 -0.05
0.025 0.025 -0.05
0.0375 0.025 -0.05
0.05 0.025 -0.05
0.0625 0.025 -0.05
0.075 0.025 -0.05
0.0875 0.025 -0.05
0.1 0.025 -0.05
0.1125 0.025 -0.05
0.125 0.025 -0.05
0.1375 0.025 -0.05
0.15 0.025 -0.05
0.1625 0.025 -0.05
0.175 0.025 -0.05
0.1875 0.025 -0.05
0.2 0.025 -0.05
0.2125 0.025 -0.05
0.225 0.025 -0.05
0.2375 0.025 -0.05
0.25 0.025 -0.05
0.2625 0.025 -0.05
0.275 0.025 -0.05
0.2875 0.025 -0.05
0.3 0.025 -0.05
0.3125 0.025 -0.05
0.325 0.025 -0.05
0.3375 0.025 -0.05
0.35 0.025 -0.05
0.3625 0.025 -0.05
0.375 0.025 -0.05
0.3875 0.025 -0.05
0.4 0.025 -0.05
0.4125 0.025 -0.05
0.425 0.025 -0.05
0.4375 0.025 -0.05
0.45 0.025 -0.05
0.4625 0.025 -0.05
0.475 0.025 -0.05
0.4875 0.025 -0.05
0.5 0.025 -0.05
0.5125 0.025 -0.05
0.525 0.025 -0.05
0.5375 0.025 -0.05
0.55 0.025 -0.05
0.5625 0.025 -0.05
0.575 0.025 -0.05
0.5875 0.025 -0.05
0.6 0.025 -0.05
0.0 0.0375 -0.05
0.0125 0.0375 -0.05
0.025 0.0375 -0.05
0.0375 0.0375 -0.05
0.05 0.0375 -0.05
0.0625 0.0375 -0.05
0.075 0.0375 -0.05
0.0875 0.0375 -0.05
0.1 0.0375 -0.05
0.1125 0.0375 -0.05
0.125 0.0375 -0.05
0.1375 0.0375 -0.05
0.15 0.0375 -0.05
0.1625 0.0375 -0.05
0.175 0.0375 -0.05
0.1875 0.0375 -0.05
0.2 0.0375 -0.05
0.2125 0.0375 -0.05
0.225 0.0375 -0.05
0.2375 0.0375 -0.05
0.25 0.0375 -0.05
0.2625 0.0375 -0.05
0.275 0.0375 -0.05
0.2875 0.0375 -0.05
0.3 0.0375 -0.05
0.3125 0.0375 -0.05
0.325 0.0375 -0.05
0.3375 0.0375 -0.05
0.35 0.0375 -0.05
0.3625 0.0375 -0.05
0.375 0.0375 -0.05
0.3875 0.0375 -0.05
0.4 0.0375 -0.05
0.4125 0.0375 -0.05
0.425 0.0375 -0.05
0.4375 0.0375 -0.05
0.45 0.0375 -0.05
0.4625 0.0375 -0.05
0.475 0.0375 -0.05
0.4875 0.0375 -0.05
0.5 0.0375 -0.05
0.5125 0.0375 -0.05
0.525 0.0375 -0.05
0.5375 0.0375 -0.05
0.55 0.0375 -0.05
0.5625 0.0375 -0.05
0.575 0.0375 -0.05
0.5875 0.0375 -0.05
0.6 0.0375 -0.05
0.0 0.05 -0.05
0.0125 0.05 -0.05
0.025 0.05 -0.05
0.0375 0.05 -0.05
0.05 0.05 -0.05
0.0625 0.05 -0.05
0.075 0.05 -0.05
0.0875 0.05 -0.05
0.1 0.05 -0.05
0.1125 0.05 -0.05
0.125 0.05 -0.05
0.1375 0.05 -0.05
0.15 0.05 -0.05
0.1625 0.05 -0.05
0.175 0.05 -0.05
0.1875 0.05 -0.05
0.2 0.05 -0.05
0.2125 0.05 -0.05
0.225 0.05 -0.05
0.2375 0.05 -0.05
0.25 0.05 -0.05
0.2625 0.05 -0.05
0.275 0.05 -0.05
0.2875 0.05 -0.05
0.3 0.05 -0.05
0.3125 0.05 -0.05
0.325 0.05 -0.05
0.3375 0.05 -0.05
0.35 0.05 -0.05
0.3625 0.05 -0.05
0.375 0.05 -0.05
0.3875 0.05 -0.05
0.4 0.05 -0.05
0.4125 0.05 -0.05
0.425 0.05 -0.05
0.4375 0.05 -0.05
0.45 0.05 -0.05
0.4625 0.05 -0.05
0.475 0.05 -0.05
0.4875 0.05 -0.05
0.5 0.05 -0.05
0.5125 0.05 -0.05
0.525 0.05 -0.05
0.5375 0.05 -0.05
0.55 0.05 -0.05
0.5625 0.05 -0.05
0.575 0.05 -0.05
0.5875 0.05 -0.05
0.6 0.05 -0.05
0.0 0.0625 -0.05
0.0125 0.0625 -0.05
0.025 0.0625 -0.05
0.0375 0.0625 -0.05
0.05 0.0625 -0.05
0.0625 0.0625 -0.05
0.075 0.0625 -0.05
0.0875 0.0625 -0.05
0.1 0.0625 -0.05
0.1125 0.0625 -0.05
0.125 0.0625 -0.05
0.1375 0.0625 -0.05
0.15 0.0625 -0.05
0.1625 0.0625 -0.05
0.175 0.0625 -0.05
0.1875 0.0625 -0.05
0.2 0.0625 -0.05
0.2125 0.0625 -0.05
0.225 0.0625 -0.05
0.2375 0.0625 -0.05
0.25 0.0625 -0.05
0.2625 0.0625 -0.05
0.275 0.0625 -0.05
0.2875 0.0625 -0.05
0.3 0.0625 -0.05
0.3125 0.0625 -0.05
0.325 0.0625 -0.05
0.3375 0.0625 -0.05
0.35 0.0625 -0.05
0.3625 0.0625 -0.05
0.375 0.0625 -0.05
0.3875 0.0625 -0.05
0.4 0.0625 -0.05
0.4125 0.0625 -0.05
0.425 0.0625 -0.05
0.4375 0.0625 -0.05
0.45 0.0625 -0.05
0.4625 0.0625 -0.05
0.475 0.0625 -0.05
0.4875 0.0625 -0.05
0.5 0.0625 -0.05
0.5125 0.0625 -0.05
0.525 0.0625 -0.05
0.5375 0.0625 -0.05
0.55 0.0625 -0.05
0.5625 0.0625 -0.05
0.575 0.0625 -0.05
0.5875 0.0625 -0.05
0.6 0.0625 -0.05
0.0 0.075 -0.05
0.0125 0.075 -0.05
0.025 0.075 -0.05
0.0375 0.075 -0.05
0.05 0.075 -0.05
0.0625 0.075 -0.05
0.075 0.075 -0.05
0.0875 0.075 -0.05
0.1 0.075 -0.05
0.1125 0.075 -0.05
0.125 0.075 -0.05
0.1375 0.075 -0.05
0.15 0.075 -0.05
0.1625 0.075 -0.05
0.175 0.075 -0.05
0.1875 0.075 -0.05
0.2 0.075 -0.05
0.2125 0.075 -0.05
0.225 0.075 -0.05
0.2375 0.075 -0.05
0.25 0.075 -0.05
0.2625 0.075 -0.05
0.275 0.075 -0.05
0.2875 0.075 -0.05
0.3 0.075 -0.05
0.3125 0.075 -0.05
0.325 0.075 -0.05
0.3375 0.075 -0.05
0.35 0.075 -0.05
0.3625 0.075 -0.05
0.375 0.075 -0.05
0.3875 0.075 -0.05
0.4 0.075 -0.05
0.4125 0.075 -0.05
0.425 0.075 -0.05
0.4375 0.075 -0.05
0.45 0.075 -0.05
0.4625 0.075 -0.05
0.475 0.075 -0.05
0.4875 0.075 -0.05
0.5 0.075 -0.05
0.5125 0.075 -0.05
0.525 0.075 -0.05
0.5375 0.075 -0.05
0.55 0.075 -0.05
0.5625 0.075 -0.05
0.575 0.075 -0.05
0.5875 0.075 -0.05
0.6 0.075 -0.05
0.0 0.0875 -0.05
0.0125 0.0875 -0.05
0.025 0.0875 -0.05
0.0375 0.0875 -0.05
0.05 0.0875 -0.05
0.0625 0.0875 -0.05
0.075 0.0875 -0.05
0.0875 0.0875 -0.05
0.1 0.0875 -0.05
0.1125 0.0875 -0.05
0.125 0.0875 -0.05
0.1375 0.0875 -0.05
0.15 0.0875 -0.05
0.1625 0.0875 -0.05
0.175 0.0875 -0.05
0.1875 0.0875 -0.05
0.2 0.0875 -0.05
0.2125 0.0875 -0.05
0.225 0.0875 -0.05
0.2375 0.0875 -0.05
0.25 0.0875 -0.05
0.2625 0.0875 -0.05
0.275 0.0875 -0.05
0.2875 0.0875 -0.05
0.3 0.0875 -0.05
0.3125 0.0875 -0.05
0.325 0.0875 -0.05
0.3375 0.0875 -0.05
0.35 0.0875 -0.05
0.3625 0.0875 -0.05
0.375 0.0875 -0.05
0.3875 0.0875 -0.05
0.4 0.0875 -0.05
0.4125 0.0875 -0.05
0.425 0.0875 -0.05
0.4375 0.0875 -0.05
0.45 0.0875 -0.05
0.4625 0.0875 -0.05
0.475 0.0875 -0.05
0.4875 0.0875 -0.05
0.5 0.0875 -0.05
0.5125 0.0875 -0.05
0.525 0.0875 -0.05
0.5375 0.0875 -0.05
0.55 0.0875 -0.05
0.5625 0.0875 -0.05
0.575 0.0875 -0.05
0.5875 0.0875 -0.05
0.6 0.0875 -0.05
0.0 0.1 -0.05
0.0125 0.1 -0.05
0.025 0.1 -0.05
0.0375 0.1 -0.05
0.05 0.1 -0.05
0.0625 0.1 -0.05
0.075 0.1 -0.05
0.0875 0.1 -0.05
0.1 0.1 -0.05
0.1125 0.1 -0.05
0.125 0.1 -0.05
0.1375 0.1 -0.05
0.15 0.1 -0.05
0.1625 0.1 -0.05
0.175 0.1 -0.05
0.1875 0.1 -0.05
0.2 0.1 -0.05
0.2125 0.1 -0.05
0.225 0.1 -0.05
0.2375 0.1 -0.05
0.25 0.1 -0.05
0.2625 0.1 -0.05
0.275 0.1 -0.05
0.2875 0.1 -0.05
0.3 0.1 -0.05
0.3125 0.1 -0.05
0.325 0.1 -0.05
0.3375 0.1 -0.05
0.35 0.1 -0.05
0.3625 0.1 -0.05
0.375 0.1 -0.05
0.3875 0.1 -0.05
0.4 0.1 -0.05
0.4125 0.1 -0.05
0.425 0.1 -0.05
0.4375 0.1 -0.05
0.45 0.1 -0.05
0.4625 0.1 -0.05
0.475 0.1 -0.05
0.4875 0.1 -0.05
0.5 0.1 -0.05
0.5125 0.1 -0.05
0.525 0.1 -0.05
0.5375 0.1 -0.05
0.55 0.1 -0.05
0.5625 0.1 -0.05
0.575 0.1 -0.05
0.5875 0.1 -0.05
0.6 0.1 -0.05
0.0 0.1125 -0.05
0.0125 0.1125 -0.05
0.025 0.1125 -0.05
0.0375 0.1125 -0.05
0.05 0.1125 -0.05
0.0625 0.1125 -0.05
0.075 0.1125 -0.05
0.0875 0.1125 -0.05
0.1 0.1125 -0.05
0.1125 0.1125 -0.05
0.125 0.1125 -0.05
0.1375 0.1125 -0.05
0.15 0.1125 -0.05
0.1625 0.1125 -0.05
0.175 0.1125 -0.05
0.1875 0.1125 -0.05
0.2 0.1125 -0.05
0.2125 0.1125 -0.05
0.225 0.1125 -0.05
0.2375 0.1125 -0.05
0.25 0.1125 -0.05
0.2625 0.1125 -0.05
0.275 0.1125 -0.05
0.2875 0.1125 -0.05
0.3 0.1125 -0.05
0.3125 0.1125 -0.05
0.325 0.1125 -0.05
0.3375 0.1125 -0.05
0.35 0.1125 -0.05
0.3625 0.1125 -0.05
0.375 0.1125 -0.05
0.3875 0.1125 -0.05
0.4 0.1125 -0.05
0.4125 0.1125 -0.05
0.425 0.1125 -0.05
0.4375 0.1125 -0.05
0.45 0.1125 -0.05
0.4625 0.1125 -0.05
0.475 0.1125 -0.05
0.4875 0.1125 -0.05
0.5 0.1125 -0.05
0.5125 0.1125 -0.05
0.525 0.1125 -0.05
0.5375 0.1125 -0.05
0.55 0.1125 -0.05
0.5625 0.1125 -0.05
0.575 0.1125 -0.05
0.5875 0.1125 -0.05
0.6 0.1125 -0.05
0.0 0.125 -0.05
0.0125 0.125 -0.05
0.025 0.125 -0.05
0.0375 0.125 -0.05
0.05 0.125 -0.05
0.0625 0.125 -0.05
0.075 0.125 -0.05
0.0875 0.125 -0.05
0.1 0.125 -0.05
0.1125 0.125 -0.05
0.125 0.125 -0.05
0.1375 0.125 -0.05
0.15 0.125 -0.05
0.1625 0.125 -0.05
0.175 0.125 -0.05
0.1875 0.125 -0.05
0.2 0.125 -0.05
0.2125 0.125 -0.05
0.225 0.125 -0.05
0.2375 0.125 -0.05
0.25 0.125 -0.05
0.2625 0.125 -0.05
0.275 0.125 -0.05
0.2875 0.125 -0.05
0.3 0.125 -0.05
0.3125 0.125 -0.05
0.325 0.125 -0.05
0.3375 0.125 -0.05
0.35 0.125 -0.05
0.3625 0.125 -0.05
0.375 0.125 -0.05
0.3875 0.125 -0.05
0.4 0.125 -0.05
0.4125 0.125 -0.05
0.425 0.125 -0.05
0.4375 0.125 -0.05
0.45 0.125 -0.05
0.4625 0.125 -0.05
0.475 0.125 -0.05
0.4875 0.125 -0.05
0.5 0.125 -0.05
0.5125 0.125 -0.05
0.525 0.125 -0.05
0.5375 0.125 -0.05
0.55 0.125 -0.05
0.5625 0.125 -0.05
0.575 0.125 -0.05
0.5875 0.125 -0.05
0.6 0.125 -0.05
0.0 0.1375 -0.05
0.0125 0.1375 -0.05
0.025 0.1375 -0.05
0.0375 0.1375 -0.05
0.05 0.1375 -0.05
0.0625 0.1375 -0.05
0.075 0.1375 -0.05
0.0875 0.1375 -0.05
[...]
CELL_DATA 16128
SCALARS P float 1
LOOKUP_TABLE default
99999.99999999863
100000.0000000049
99999.99999998337
100000.00000005458
99999.99999982708
100000.00000053828
99999.99999834927
100000.00000500034
99999.99998499858
100000.00004463685
99999.99986810161
100000.0003873983
99999.99886818002
100000.00329118285
99999.99047004388
100000.02748926489
99999.92098533401
100000.22637905089
99999.35339953058
100001.84116234398
99994.78041040349
100014.51074380452
99965.92197482444
99911.35865532409
105621.49427597788
195794.51981871313
454222.9259413626
777998.4129113097
982831.9459135731
1.0490690924850446e6
1.0678882820230213e6
1.0801945011976592e6
1.0916803202443726e6
1.102679953779933e6
1.1131727231655212e6
1.123139116205889e6
1.132563727978185e6
1.1414300643940629e6
1.1497150122574056e6
1.1573947370037027e6
1.1644233905708285e6
1.170795261727417e6
1.1763639326361518e6
1.1813792552854172e6
1.1849071454200358e6
1.1895134529266562e6
1.1873887553598902e6
1.2014690237599958e6
99999.99999999873
100000.0000000043
99999.9999999851
100000.00000004936
99999.9999998422
100000.00000049478
99999.99999847297
100000.00000464964
99999.99998598981
100000.00004184498
99999.99987594063
100000.0003654683
99999.99892928639
100000.00312168399
99999.99093775426
100000.02620661583
99999.9244767235
100000.2169633738
99999.37848921867
100001.77539180944
99994.94859042206
100014.10507992258
99966.60712359077
99916.51644698391
105399.57155393659
194514.1199607431
452935.63367299427
779718.2980749493
988613.0957041611
1.057168940771758e6
1.0769488768001497e6
1.0897453311039533e6
1.1015378628673812e6
1.1127680814584924e6
1.1234660988040192e6
1.1336353101639363e6
1.1432686952886728e6
1.1523506261762753e6
1.1608548336827136e6
1.1687518324373616e6
1.1759884756305697e6
1.1825499689505869e6
1.188280457399997e6
1.193417988023135e6
1.1970195816398459e6
1.2016510631601778e6
1.1994404118594762e6
1.2137238290224622e6
99999.99999999929
100000.00000000304
99999.99999998923
100000.00000003706
99999.99999987717
100000.00000039488
99999.99999875818
100000.00000383903
99999.99998828807
100000.00003534384
99999.99989428364
100000.00031384375
99999.99907420577
100000.00271593516
99999.99207074294
100000.02305155914
99999.93323839619
100000.19269912106
99999.44550656885
100001.59076769944
99995.45558496342
100012.73394395103
99969.83383427488
99921.69073539015
104908.80762872353
190911.6631327685
445702.3297250373
772098.172919085
983366.4695392814
1.0534260081873888e6
1.0733796152678584e6
1.0860406085892154e6
1.0976650055150182e6
1.1087186047827539e6
1.1192301965712837e6
1.1292023644358935e6
1.1386290147790106e6
1.1474966150162825e6
1.1557818909399093e6
1.1634588196201967e6
1.1704790694147644e6
1.1768316537725427e6
1.1823705978971485e6
1.187330787331622e6
1.1908020894322577e6
1.1953003425829287e6
1.1930257442718735e6
1.2075062546779963e6
100000.00000000016
100000.00000000093
99999.99999999524
100000.00000001985
99999.99999992628
100000.00000025432
99999.99999915963
100000.00000269356
99999.99999154739
100000.00002609038
99999.99992049756
100000.00023974292
99999.99928322449
100000.00212760697
99999.99372319618
100000.01842013709
99999.9461915667
100000.15654862956
99999.54618317689
100001.31103330481
99996.23017429495
100010.62324915543
99974.8529979698
99929.20312366696
104189.31668496525
185319.79391737562
434498.4665790925
761136.4203826647
977513.0388595704
1.05094683494251e6
1.0716995458494788e6
1.0844845634292641e6
1.0961286202817254e6
1.1071744514556513e6
1.1176663912269427e6
1.1276153201407506e6
1.1370210116243106e6
1.1458742469887661e6
1.1541550936441962e6
1.1618396773413774e6
1.1688816893101279e6
1.175268645530938e6
1.1808579272142125e6
1.1858687206552108e6
1.1894140528916807e6
1.193943153140355e6
1.1916907442797073e6
1.2065490171283088e6
100000.00000000087
99999.99999999843
100000.00000000207
99999.99999999983
99999.99999998392
100000.00000008797
99999.99999963684
100000.00000132751
99999.99999545018
100000.00001496167
99999.99995216643
100000.00014979734
99999.99953819903
100000.00140617121
99999.99576064105
100000.01267684568
99999.9623505983
100000.11117201787
99999.67335262941
100000.95543699832
99997.22108887887
100007.90480386045
99981.39819511242
99938.03278885823
103326.82189874271
178000.35511708213
419379.65675789845
746044.269268306
969244.9975846006
1.0472673289520256e6
1.068992370131055e6
1.081787976162775e6
1.0933205338345522e6
1.1042351171206136e6
1.1145866240595877e6
1.1243897455397933e6
1.1336475572222553e6
1.142353879212596e6
1.150491751303525e6
1.1580397116354348e6
1.164954560364947e6
1.1712237142552782e6
1.1767115408639093e6
1.1816234277313019e6
1.1851071706972397e6
1.1895445652672774e6
1.1872246619010079e6
1.202496995657618e6
100000.00000000175
99999.9999999959
100000.00000000927
99999.99999997883
100000.00000004431
99999.99999991321
100000.0000001411
99999.99999987689
99999.99999961627
100000.00000302178
99999.9999863209
100000.00005227143
99999.99981619719
100000.0006150631
99999.9980082328
100000.00630162163
99999.98040453607
100000.0601285167
99999.81742676202
100000.54953425228
99998.36130136083
100004.74735454645
99989.14342936674
99946.38646484012
102421.5119986495
169298.895914377
400576.4202236073
726712.2056093096
958482.1772241879
1.0426519658170644e6
1.0657725687220825e6
1.0786115220147562e6
1.090012734903324e6
1.1007728755250557e6
1.11096134633332e6
1.1205971586770325e6
1.1296873539417884e6
1.1382295939865059e6
1.146210728273692e6
1.1536124425594395e6
1.16039528517984e6
1.166546699267609e6
1.1719382796692422e6
1.1767601093002905e6
1.180195333199088e6
1.1845568014233955e6
1.182168974135969e6
1.1979765428674924e6
100000.00000000263
99999.99999999352
100000.00000001612
99999.99999995931
100000.00000010109
99999.999999748
100000.00000061998
99999.99999848996
100000.00000362324
99999.99999146837
100000.00001957275
99999.99995673209
100000.00009026496
99999.99983004191
100000.00025360039
99999.99988799698
99999.99870033914
100000.00800354277
99999.96574497371
100000.1280881567
99999.55606031728
100001.40329891653
99997.5226800631
99952.56157832558
101571.14403470782
159629.3351406324
378400.14329115156
702967.1935249381
944827.4302792444
1.0368607737545933e6
1.0619003632949854e6
1.0748160485597719e6
1.0860420689427427e6
1.0965953898941404e6
1.1065657475748642e6
1.1159761918516778e6
1.1248373946703128e6
1.133150802517132e6
1.140907270362004e6
1.148092063078838e6
1.1546702130577187e6
1.1606302375516125e6
1.1658526853122704e6
1.1705144559263475e6
1.1738378483200085e6
1.1780726816228186e6
1.175563825546907e6
1.1920169864373081e6
100000.0000000031
99999.99999999176
100000.00000002129
99999.99999994347
100000.00000014811
99999.99999961033
100000.00000102363
99999.99999731153
100000.00000705471
99999.99998149714
100000.00004849021
99999.99987301872
100000.00033222369
99999.99913169786
100000.00226658327
99999.99409227316
100000.01536972825
99999.96010563103
100000.10325393957
99999.73368637016
100000.68527148059
99998.20645308428
100005.70965095214
99955.5808747983
100856.27145822077
149461.81166328368
353266.7622541042
674673.7484028868
927850.8227474077
1.0296774549432021e6
1.0573374954101425e6
1.0704098185621065e6
1.0814283139409758e6
1.091727773219953e6
1.1014286083526069e6
1.1105582293098983e6
1.1191307062696158e6
1.1271512422691663e6
1.1346149243505448e6
1.141511134971578e6
1.14781028007391e6
1.1535033950183743e6
1.158481859259445e6
1.162912447000035e6
1.1660593667305224e6
1.1701179670494157e6
1.1674294844205098e6
1.1846733313244032e6
100000.00000000349
99999.99999999064
100000.00000002483
99999.99999993268
100000.00000018037
99999.99999951346
100000.00000131088
99999.99999646135
100000.00000956164
99999.9999741287
100000.0000700918
99999.99980983285
100000.0005166883
99999.9985940559
100000.00383141523
99999.9895430733
100000.02858215851
99999.92176236556
100000.21445820402
99999.41135979912
100001.61828064566
99995.53244438709
100012.70302293159
99955.73024956897
100327.61512859927
139302.7055757452
325713.3446949931
641755.9132043072
907050.4640518161
1.0208090995623121e6
1.0520131980331156e6
1.065376715130854e6
1.07616025003944e6
1.0861546101551158e6
1.0955275822974942e6
1.1043116666767795e6
1.1125236995446563e6
1.1201720502434305e6
1.1272556229498775e6
1.1337677946249319e6
1.1396845416494964e6
1.1450003300688374e6
1.1496186655893703e6
1.1536996820819217e6
1.156552841958174e6
1.1603325040234192e6
1.157354121551882e6
1.1755534953393661e6
100000.00000000346
99999.9999999901
100000.00000002631
99999.9999999278
100000.00000019558
99999.99999946625
100000.00000145716
99999.99999601388
100000.00001091958
99999.9999700352
100000.00008236355
99999.99977320751
100000.00062559303
99999.99827120734
100000.00478616226
99999.98672514311
100000.0368866255
99999.89731692975
100000.28635835591
99999.20001165025
100002.23874300187
99993.72766524862
100017.51160414409
99954.6951010212
99998.51656527603
129664.08366151777
296413.6493352088
604242.26268072
881866.4759979323
1.0098767752596112e6
1.0458346037002021e6
1.0597051011840806e6
1.0702369761034364e6
1.0798726733265887e6
1.0888539546578159e6
1.0972200066533047e6
1.1049894005746276e6
1.1121724595920031e6
1.1187707885565527e6
1.1247809831452921e6
1.130184326917722e6
1.134979746744883e6
1.1390849321419718e6
1.1426592954986098e6
1.1450632922334694e6
1.1484297097601553e6
1.1450221733702999e6
1.1644010587235799e6
100000.00000000335
99999.99999999038
100000.00000002564
99999.9999999293
100000.00000019302
99999.99999946944
100000.0000014577
99999.99999598518
100000.00001107251
99999.99996940739
100000.00008466943
99999.99976524162
100000.00065208586
99999.99818533355
100000.00505949961
99999.98586657598
100000.0395570077
99999.88907214566
100000.31167433057
99999.1226006427
100002.47439431136
99993.019930518
100019.41295846507
99955.02577932736
99845.46568749267
121020.827064892
266184.5570039734
562319.1943548472
851703.8474147767
996390.8737702022
1.0386688347231427e6
1.0533802661841111e6
1.0636621102360685e6
1.072884120915055e6
1.0814040470412136e6
1.089270916556607e6
1.096503384479413e6
1.103111344802031e6
1.1090962998433025e6
1.1144548894575243e6
1.1191699459531235e6
1.12324098514515e6
1.1265947922097878e6
1.1293873874277016e6
1.1310292331886555e6
1.1336545225563303e6
1.129459145277179e6
1.1501962787835605e6
100000.00000000303
99999.99999999146
100000.00000002296
99999.99999993593
100000.00000017523
99999.99999951725
100000.00000132956
99999.99999632937
100000.000010146
99999.99997190593
100000.00007791765
99999.99978352353
100000.00060248449
99999.99832016532
100000.0046923439
99999.98686786968
100000.03682312882
99999.8965419326
100000.29126140475
99999.1783523842
100002.32222448265
99993.43603773149
100018.22825050287
99959.11918927895
99817.93814580866
113757.41880254773
235977.19549989645
516389.7448451389
815975.4292645926
979729.651096236
1.0303228209047283e6
1.046380087358727e6
1.0564450472322314e6
1.0651998088072978e6
1.073184108423125e6
1.0804629969420633e6
1.0870530878815504e6
1.092960349409045e6
1.0981820292159624e6
1.1027103542456457e6
1.1065253710803073e6
1.1096247302561097e6
1.1119443077403745e6
1.1136485774342406e6
1.1142051221167347e6
1.1158010603806241e6
1.1105407813854667e6
1.1330616113387244e6
100000.00000000252
99999.99999999272
100000.00000001935
99999.99999994652
100000.00000014628
99999.99999959726
100000.00000110733
99999.99999694768
100000.0000084217
99999.99997672795
100000.00006439608
99999.99982154077
100000.00049531413
99999.99862306843
100000.00383404097
99999.98930598925
100000.02988075379
99999.91635504796
100000.23459374404
99999.34075249732
100001.85598539625
99994.77490212166
100014.43337843081
99967.96402273035
99855.75968227358
108112.21912783649
206846.07619636503
467131.01273513335
774168.8861550227
959123.613352742
1.0205154005801866e6
1.0386666377959186e6
1.048600136119204e6
1.0568405770140518e6
1.0642125540969062e6
1.0708087371170362e6
1.076640990190024e6
1.081705638349106e6
1.085987563357181e6
1.0894631187742886e6
1.0920923654033074e6
1.0938470810673276e6
1.0946309134181782e6
1.0945567749525781e6
1.0930862999488884e6
1.0923857172293123e6
1.0844470480818448e6
1.1081839169583034e6
100000.0000000019
99999.9999999944
100000.00000001492
99999.9999999589
100000.00000011132
99999.99999969415
100000.00000083607
99999.99999770928
100000.00000627674
99999.99998278118
100000.00004727172
99999.99987010431
100000.00035725044
99999.99901654558
100000.00270987452
99999.99252564496
100000.02063695452
99999.94295900018
100000.1578424162
99999.56270049204
100001.21277327368
99996.63991260267
100009.11124646303
99980.41083532287
99908.01981102317
104133.8901656219
179889.33757770786
415540.3192710492
725940.7331542863
933653.8303049664
1.0088410384198003e6
1.03017292568457e6
1.0401446710706904e6
1.0478386321479017e6
1.054523168775257e6
1.0603401291067854e6
1.0652946050543361e6
1.0693667155764864e6
1.0725200306991427e6
1.0747040183965983e6
1.075847779881982e6
1.075884981510082e6
1.0746963602507e6
1.0723811756537608e6
1.0684698384303383e6
1.065252476819203e6
1.054685336643368e6
1.0812775314223825e6
100000.00000000138
99999.99999999606
100000.00000001024
99999.99999997132
100000.00000007667
99999.99999979191
100000.00000056159
99999.99999848095
100000.0000041016
99999.9999889262
100000.0000298744
99999.99991946913
100000.00021685965
99999.99941673428
100000.00156642788
99999.99580063469
100000.01123394347
99999.97002397907
100000.07974203491
99999.78865492773
100000.55745267811
99998.54240576993
100003.66654263639
99993.57771490743
99945.84313217035
101669.06040739271
156153.32005612215
362956.64889894583
671236.8176387473
902276.1562112186
994725.5964290531
1.0207822708211741e6
1.0310943432002119e6
1.0382377282781512e6
1.0441667493587814e6
1.049110866300614e6
1.0530678266597637e6
1.0559923039607585e6
1.057810773000906e6
1.0584187985871376e6
1.057665810066838e6
1.0553636898020303e6
1.0511964686822603e6
1.0449191664688082e6
1.0355101440378823e6
1.0243720518613774e6
1.0020268426658568e6
1.0201744579947313e6
100000.00000000077
99999.99999999741
100000.00000000655
99999.99999998235
100000.000000046
99999.99999987753
100000.00000032193
99999.9999991525
100000.00000221716
99999.99999422286
100000.0000149589
99999.99996154745
100000.00009792997
99999.99975352544
100000.00061078275
99999.99851788732
100000.0034911841
99999.99213629084
100000.01644413051
99999.97029293343
100000.03497951808
100000.04694671466
99999.38843977432
100004.12378650598
99963.69190411965
100397.0313989983
136498.49052785724
311040.8454835406
610431.6512608854
863887.5233922496
977378.4448734976
1.0102977242436245e6
1.0214550626056085e6
1.0280924143111147e6
1.0332132716864423e6
1.0372019891989e6
1.0400541721556131e6
1.0416922129323989e6
1.0419929015012288e6
1.0407835682493605e6
1.0378216466827224e6
1.0327952336274176e6
1.0252455716249004e6
1.0147992419848558e6
1.0004712759638339e6
983992.1566084754
956208.4641931836
979421.3152137497
100000.00000000045
99999.99999999865
100000.00000000333
99999.99999999114
100000.00000002225
99999.99999994309
100000.0000001401
99999.99999965669
100000.0000008189
99999.99999810458
100000.00000417506
99999.99999152766
100000.00001452184
99999.99998573723
99999.99996386105
100000.0003213353
99999.99846042342
100000.00617861148
99999.97722305782
100000.07990915675
99999.72847492633
100000.90310682186
99997.03217340352
100009.75603229066
99970.23525878703
99912.57260501549
121438.44778245412
261696.87525112616
544467.1079096459
817450.8920604629
955750.6138237361
998398.3685477478
1.0112086654451009e6
1.0174642676560098e6
1.0217504382880132e6
1.0247198485419255e6
1.0263808338341231e6
1.026617378111344e6
1.0252403455809115e6
1.0219782806358424e6
1.016423448123397e6
1.0079695564353088e6
995590.324347593
977706.4333466374
950618.5821512205
909401.7475200713
830416.6112176977
701358.3184803022
100000.00000000013
99999.99999999942
100000.00000000114
99999.99999999689
100000.00000000645
99999.99999998636
100000.00000002269
99999.99999997497
99999.9999999573
100000.00000043298
99999.99999789768
100000.00000840318
99999.999969316
100000.00010630522
99999.99964404109
100000.00116392181
99999.99625971662
100000.01186262546
99999.9627573101
100000.11599189053
99999.64102740085
100001.10539663366
99996.61222084147
100010.1876409674
99975.92449620599
99833.430182239
110994.73904116341
216920.22479645393
474957.20955535374
762188.9530411937
928515.8142202704
984579.5797392528
1.0002895854697372e6
1.0064148045571233e6
1.0098812696771552e6
1.011796285192516e6
1.012215483174512e6
1.0109853404228851e6
1.0078543728691809e6
1.0024479158578139e6
994200.3553570715
982251.7492448052
965168.6906206008
940723.1148604822
904356.9759582271
850110.2751596526
758415.7035059386
621189.9287789521
99999.99999999993
99999.99999999997
99999.99999999983
100000.00000000022
99999.99999999747
100000.00000000943
99999.9999999628
100000.00000012974
99999.9999995623
100000.00000142789
99999.99999543824
100000.00001432934
99999.99995556362
100000.00013636328
99999.99958512276
100000.00125309204
99999.99623873134
100000.01122820147
99999.96664441303
100000.09865162324
99999.7094253287
100000.85243017634
99997.51391971136
100007.0476873504
99985.16052283275
99888.07265155422
104642.13297009162
178567.14088446606
404217.11619859224
697843.4656411152
894101.1831400967
968076.6590746362
988547.7690497903
994992.1461563879
997716.5738163855
998580.0071397802
997749.2842837039
995053.3242440742
990188.1608203289
982702.9537661294
971926.0801242315
956860.5878937088
935924.2053884196
906789.015601668
865203.4792547508
806217.2819274996
716695.3443422461
595194.4633422339
99999.99999999985
99999.9999999999
99999.99999999917
100000.00000000166
99999.99999999415
100000.00000001755
99999.99999994467
100000.00000016768
99999.99999949319
100000.00000151282
99999.99999551736
100000.00001317915
99999.99996151502
100000.00011163908
99999.99967823162
100000.00092137625
99999.9973794745
100000.0073992246
99999.97927459065
100000.05752504522
99999.84204015227
100000.42799647329
99998.86323640647
100002.84503403484
99995.73963006897
99943.65862410162
101412.52760048807
148047.62569333296
335173.87127041415
624976.5730646865
850807.6860275524
947780.1079568905
975693.4600059992
983209.6981513605
985363.6620933185
985223.9568712311
983180.3345627057
979078.944072251
972585.4831728885
963208.0286581698
950233.0839414119
932640.2448007684
908898.2301140969
876897.9786179417
833159.372006445
774121.2244068369
691751.7123497189
587679.9891656548
99999.99999999985
99999.99999999994
99999.9999999992
100000.00000000179
99999.99999999415
100000.00000001682
99999.99999995047
100000.0000001411
99999.9999995966
100000.00000114115
99999.9999967922
100000.00000893745
99999.99997532225
100000.00006742601
99999.99981801494
100000.00048391391
99999.99873720229
100000.0032144312
99999.992097349
100000.01843319733
99999.96068741291
100000.06937044335
99999.94144791253
99999.67522100941
100003.34979330737
99970.65375528867
100157.25410276125
125975.1872787469
271122.5684824424
545254.7589391604
797064.1557944015
922166.053138562
961220.3667743695
971014.3293743326
972911.4743012183
971871.9210443696
968695.8104397513
963296.7721385158
955340.8288813485
944329.9793046459
929563.6683471992
910080.2151180763
884515.8742708893
851112.804531289
807235.2602368487
750515.8642398342
676359.9991902631
587187.6368224331
99999.99999999994
100000.00000000007
99999.99999999943
100000.00000000146
99999.99999999542
100000.00000001205
99999.99999996598
100000.00000009224
99999.9999997501
100000.00000066635
99999.99999824441
100000.00000453867
99999.99998853065
100000.0000280776
99999.99993436209
100000.000142393
99999.9997323376
100000.00033699267
100000.00034848294
99999.99499273623
100000.0265591408
99999.88671215683
100000.43839994598
99998.38562515496
100005.82929468597
99982.03815325
99867.5375352744
111892.87982620121
215313.5287818429
461612.3575689068
731836.0803383663
889283.3827921329
944305.1256363775
958239.5595711748
960411.5779658158
958647.5877213384
954457.3496429311
947902.7179784261
938683.8252429297
926327.5197355661
910185.0046459327