# vtk DataFile Version 2.0
JuliaCFD
ASCII
DATASET UNSTRUCTURED_GRID

POINTS 32898 float
0.0 0.0 -0.05
0.0125 0.0 -0.05
0.025 0.0 -0.05
0.0375 0.0 -0.05
0.05 0.0 -0.05
0.0625 0.0 -0.05
0.075 0.0 -0.05
0.0875 0.0 -0.05
0.1 0.0 -0.05
0.1125 0.0 -0.05
0.125 0.0 -0.05
0.1375 0.0 -0.05
0.15 0.0 -0.05
0.1625 0.0 -0.05
0.175 0.0 -0.05
0.1875 0.0 -0.05
0.2 0.0 -0.05
0.2125 0.0 -0.05
0.225 0.0 -0.05
0.2375 0.0 -0.05
0.25 0.0 -0.05
0.2625 0.0 -0.05
0.275 0.0 -0.05
0.2875 0.0 -0.05
0.3 0.0 -0.05
0.3125 0.0 -0.05
0.325 0.0 -0.05
0.3375 0.0 -0.05
0.35 0.0 -0.05
0.3625 0.0 -0.05
0.375 0.0 -0.05
0.3875 0.0 -0.05
0.4 0.0 -0.05
0.4125 0.0 -0.05
0.425 0.0 -0.05
0.4375 0.0 -0.05
0.45 0.0 -0.05
0.4625 0.0 -0.05
0.475 0.0 -0.05
0.4875 0.0 -0.05
0.5 0.0 -0.05
0.5125 0.0 -0.05
0.525 0.0 -0.05
0.5375 0.0 -0.05
0.55 0.0 -0.05
0.5625 0.0 -0.05
0.575 0.0 -0.05
0.5875 0.0 -0.05
0.6 0.0 -0.05
0.0 0.0125 -0.05
0.0125 0.0125 -0.05
0.025 0.0125 -0.05
0.0375 0.0125 -0.05
0.05 0.0125 -0.05
0.0625 0.0125 -0.05
0.075 0.0125 -0.05
0.0875 0.0125 -0.05
0.1 0.0125 -0.05
0.1125 0.0125 -0.05
0.125 0.0125 -0.05
0.1375 0.0125 -0.05
0.15 0.0125 -0.05
0.1625 0.0125 -0.05
0.175 0.0125 -0.05
0.1875 0.0125 -0.05
0.2 0.0125 -0.05
0.2125 0.0125 -0.05
0.225 0.0125 -0.05
0.2375 0.0125 -0.05
0.25 0.0125 -0.05
0.2625 0.0125 -0.05
0.275 0.0125 -0.05
0.2875 0.0125 -0.05
0.3 0.0125 -0.05
0.3125 0.0125 -0.05
0.325 0.0125 -0.05
0.3375 0.0125 -0.05
0.35 0.0125 -0.05
0.3625 0.0125 -0.05
0.375 0.0125 -0.05
0.3875 0.0125 -0.05
0.4 0.0125 -0.05
0.4125 0.0125 -0.05
0.425 0.0125 -0.05
0.4375 0.0125 -0.05
0.45 0.0125 -0.05
0.4625 0.0125 -0.05
0.475 0.0125 -0.05
0.4875 0.0125 -0.05
0.5 0.0125 -0.05
0.5125 0.0125 -0.05
0.525 0.0125 -0.05
0.5375 0.0125 -0.05
0.55 0.0125 -0.05
0.5625 0.0125 -0.05
0.575 0.0125 -0.05
0.5875 0.0125 -0.05
0.6 0.0125 -0.05
0.0 0.025 -0.05
0.0125 0.025 -0.05
0.025 0.025 -0.05
0.0375 0.025 -0.05
0.05 0.025 -0.05
0.0625 0.025 -0.05
0.075 0.025 -0.05
0.0875 0.025 -0.05
0.1 0.025 -0.05
0.1125 0.025 -0.05
0.125 0.025 -0.05
0.1375 0.025 -0.05
0.15 0.025 -0.05
0.1625 0.025 -0.05
0.175 0.025 -0.05
0.1875 0.025 -0.05
0.2 0.025 -0.05
0.2125 0.025 -0.05
0.225 0.025 -0.05
0.2375 0.025 -0.05
0.25 0.025 -0.05
0.2625 0.025 -0.05
0.275 0.025 -0.05
0.2875 0.025 -0.05
0.3 0.025 -0.05
0.3125 0.025 -0.05
0.325 0.025 -0.05
0.3375 0.025 -0.05
0.35 0.025 -0.05
0.3625 0.025 -0.05
0.375 0.025 -0.05
0.3875 0.025 -0.05
0.4 0.025 -0.05
0.4125 0.025 -0.05
0.425 0.025 -0.05
0.4375 0.025 -0.05
0.45 0.025 -0.05
0.4625 0.025 -0.05
0.475 0.025 -0.05
0.4875 0.025 -0.05
0.5 0.025 -0.05
0.5125 0.025 -0.05
0.525 0.025 -0.05
0.5375 0.025 -0.05
0.55 0.025 -0.05
0.5625 0.025 -0.05
0.575 0.025 -0.05
0.5875 0.025 -0.05
0.6 0.025 -0.05
0.0 0.0375 -0.05
0.0125 0.0375 -0.05
0.025 0.0375 -0.05
0.0375 0.0375 -0.05
0.05 0.0375 -0.05
0.0625 0.0375 -0.05
0.075 0.0375 -0.05
0.0875 0.0375 -0.05
0.1 0.0375 -0.05
0.1125 0.0375 -0.05
0.125 0.0375 -0.05
0.1375 0.0375 -0.05
0.15 0.0375 -0.05
0.1625 0.0375 -0.05
0.175 0.0375 -0.05
0.1875 0.0375 -0.05
0.2 0.0375 -0.05
0.2125 0.0375 -0.05
0.225 0.0375 -0.05
0.2375 0.0375 -0.05
0.25 0.0375 -0.05
0.2625 0.0375 -0.05
0.275 0.0375 -0.05
0.2875 0.0375 -0.05
0.3 0.0375 -0.05
0.3125 0.0375 -0.05
0.325 0.0375 -0.05
0.3375 0.0375 -0.05
0.35 0.0375 -0.05
0.3625 0.0375 -0.05
0.375 0.0375 -0.05
0.3875 0.0375 -0.05
0.4 0.0375 -0.05
0.4125 0.0375 -0.05
0.425 0.0375 -0.05
0.4375 0.0375 -0.05
0.45 0.0375 -0.05
0.4625 0.0375 -0.05
0.475 0.0375 -0.05
0.4875 0.0375 -0.05
0.5 0.0375 -0.05
0.5125 0.0375 -0.05
0.525 0.0375 -0.05
0.5375 0.0375 -0.05
0.55 0.0375 -0.05
0.5625 0.0375 -0.05
0.575 0.0375 -0.05
0.5875 0.0375 -0.05
0.6 0.0375 -0.05
0.0 0.05 -0.05
0.0125 0.05 -0.05
0.025 0.05 -0.05
0.0375 0.05 -0.05
0.05 0.05 -0.05
0.0625 0.05 -0.05
0.075 0.05 -0.05
0.0875 0.05 -0.05
0.1 0.05 -0.05
0.1125 0.05 -0.05
0.125 0.05 -0.05
0.1375 0.05 -0.05
0.15 0.05 -0.05
0.1625 0.05 -0.05
0.175 0.05 -0.05
0.1875 0.05 -0.05
0.2 0.05 -0.05
0.2125 0.05 -0.05
0.225 0.05 -0.05
0.2375 0.05 -0.05
0.25 0.05 -0.05
0.2625 0.05 -0.05
0.275 0.05 -0.05
0.2875 0.05 -0.05
0.3 0.05 -0.05
0.3125 0.05 -0.05
0.325 0.05 -0.05
0.3375 0.05 -0.05
0.35 0.05 -0.05
0.3625 0.05 -0.05
0.375 0.05 -0.05
0.3875 0.05 -0.05
0.4 0.05 -0.05
0.4125 0.05 -0.05
0.425 0.05 -0.05
0.4375 0.05 -0.05
0.45 0.05 -0.05
0.4625 0.05 -0.05
0.475 0.05 -0.05
0.4875 0.05 -0.05
0.5 0.05 -0.05
0.5125 0.05 -0.05
0.525 0.05 -0.05
0.5375 0.05 -0.05
0.55 0.05 -0.05
0.5625 0.05 -0.05
0.575 0.05 -0.05
0.5875 0.05 -0.05
0.6 0.05 -0.05
0.0 0.0625 -0.05
0.0125 0.0625 -0.05
0.025 0.0625 -0.05
0.0375 0.0625 -0.05
0.05 0.0625 -0.05
0.0625 0.0625 -0.05
0.075 0.0625 -0.05
0.0875 0.0625 -0.05
0.1 0.0625 -0.05
0.1125 0.0625 -0.05
0.125 0.0625 -0.05
0.1375 0.0625 -0.05
0.15 0.0625 -0.05
0.1625 0.0625 -0.05
0.175 0.0625 -0.05
0.1875 0.0625 -0.05
0.2 0.0625 -0.05
0.2125 0.0625 -0.05
0.225 0.0625 -0.05
0.2375 0.0625 -0.05
0.25 0.0625 -0.05
0.2625 0.0625 -0.05
0.275 0.0625 -0.05
0.2875 0.0625 -0.05
0.3 0.0625 -0.05
0.3125 0.0625 -0.05
0.325 0.0625 -0.05
0.3375 0.0625 -0.05
0.35 0.0625 -0.05
0.3625 0.0625 -0.05
0.375 0.0625 -0.05
0.3875 0.0625 -0.05
0.4 0.0625 -0.05
0.4125 0.0625 -0.05
0.425 0.0625 -0.05
0.4375 0.0625 -0.05
0.45 0.0625 -0.05
0.4625 0.0625 -0.05
0.475 0.0625 -0.05
0.4875 0.0625 -0.05
0.5 0.0625 -0.05
0.5125 0.0625 -0.05
0.525 0.0625 -0.05
0.5375 0.0625 -0.05
0.55 0.0625 -0.05
0.5625 0.0625 -0.05
0.575 0.0625 -0.05
0.5875 0.0625 -0.05
0.6 0.0625 -0.05
0.0 0.075 -0.05
0.0125 0.075 -0.05
0.025 0.075 -0.05
0.0375 0.075 -0.05
0.05 0.075 -0.05
0.0625 0.075 -0.05
0.075 0.075 -0.05
0.0875 0.075 -0.05
0.1 0.075 -0.05
0.1125 0.075 -0.05
0.125 0.075 -0.05
0.1375 0.075 -0.05
0.15 0.075 -0.05
0.1625 0.075 -0.05
0.175 0.075 -0.05
0.1875 0.075 -0.05
0.2 0.075 -0.05
0.2125 0.075 -0.05
0.225 0.075 -0.05
0.2375 0.075 -0.05
0.25 0.075 -0.05
0.2625 0.075 -0.05
0.275 0.075 -0.05
0.2875 0.075 -0.05
0.3 0.075 -0.05
0.3125 0.075 -0.05
0.325 0.075 -0.05
0.3375 0.075 -0.05
0.35 0.075 -0.05
0.3625 0.075 -0.05
0.375 0.075 -0.05
0.3875 0.075 -0.05
0.4 0.075 -0.05
0.4125 0.075 -0.05
0.425 0.075 -0.05
0.4375 0.075 -0.05
0.45 0.075 -0.05
0.4625 0.075 -0.05
0.475 0.075 -0.05
0.4875 0.075 -0.05
0.5 0.075 -0.05
0.5125 0.075 -0.05
0.525 0.075 -0.05
0.5375 0.075 -0.05
0.55 0.075 -0.05
0.5625 0.075 -0.05
0.575 0.075 -0.05
0.5875 0.075 -0.05
0.6 0.075 -0.05
0.0 0.0875 -0.05
0.0125 0.0875 -0.05
0.025 0.0875 -0.05
0.0375 0.0875 -0.05
0.05 0.0875 -0.05
0.0625 0.0875 -0.05
0.075 0.0875 -0.05
0.0875 0.0875 -0.05
0.1 0.0875 -0.05
0.1125 0.0875 -0.05
0.125 0.0875 -0.05
0.1375 0.0875 -0.05
0.15 0.0875 -0.05
0.1625 0.0875 -0.05
0.175 0.0875 -0.05
0.1875 0.0875 -0.05
0.2 0.0875 -0.05
0.2125 0.0875 -0.05
0.225 0.0875 -0.05
0.2375 0.0875 -0.05
0.25 0.0875 -0.05
0.2625 0.0875 -0.05
0.275 0.0875 -0.05
0.2875 0.0875 -0.05
0.3 0.0875 -0.05
0.3125 0.0875 -0.05
0.325 0.0875 -0.05
0.3375 0.0875 -0.05
0.35 0.0875 -0.05
0.3625 0.0875 -0.05
0.375 0.0875 -0.05
0.3875 0.0875 -0.05
0.4 0.0875 -0.05
0.4125 0.0875 -0.05
0.425 0.0875 -0.05
0.4375 0.0875 -0.05
0.45 0.0875 -0.05
0.4625 0.0875 -0.05
0.475 0.0875 -0.05
0.4875 0.0875 -0.05
0.5 0.0875 -0.05
0.5125 0.0875 -0.05
0.525 0.0875 -0.05
0.5375 0.0875 -0.05
0.55 0.0875 -0.05
0.5625 0.0875 -0.05
0.575 0.0875 -0.05
0.5875 0.0875 -0.05
0.6 0.0875 -0.05
0.0 0.1 -0.05
0.0125 0.1 -0.05
0.025 0.1 -0.05
0.0375 0.1 -0.05
0.05 0.1 -0.05
0.0625 0.1 -0.05
0.075 0.1 -0.05
0.0875 0.1 -0.05
0.1 0.1 -0.05
0.1125 0.1 -0.05
0.125 0.1 -0.05
0.1375 0.1 -0.05
0.15 0.1 -0.05
0.1625 0.1 -0.05
0.175 0.1 -0.05
0.1875 0.1 -0.05
0.2 0.1 -0.05
0.2125 0.1 -0.05
0.225 0.1 -0.05
0.2375 0.1 -0.05
0.25 0.1 -0.05
0.2625 0.1 -0.05
0.275 0.1 -0.05
0.2875 0.1 -0.05
0.3 0.1 -0.05
0.3125 0.1 -0.05
0.325 0.1 -0.05
0.3375 0.1 -0.05
0.35 0.1 -0.05
0.3625 0.1 -0.05
0.375 0.1 -0.05
0.3875 0.1 -0.05
0.4 0.1 -0.05
0.4125 0.1 -0.05
0.425 0.1 -0.05
0.4375 0.1 -0.05
0.45 0.1 -0.05
0.4625 0.1 -0.05
0.475 0.1 -0.05
0.4875 0.1 -0.05
0.5 0.1 -0.05
0.5125 0.1 -0.05
0.525 0.1 -0.05
0.5375 0.1 -0.05
0.55 0.1 -0.05
0.5625 0.1 -0.05
0.575 0.1 -0.05
0.5875 0.1 -0.05
0.6 0.1 -0.05
0.0 0.1125 -0.05
0.0125 0.1125 -0.05
0.025 0.1125 -0.05
0.0375 0.1125 -0.05
0.05 0.1125 -0.05
0.0625 0.1125 -0.05
0.075 0.1125 -0.05
0.0875 0.1125 -0.05
0.1 0.1125 -0.05
0.1125 0.1125 -0.05
0.125 0.1125 -0.05
0.1375 0.1125 -0.05
0.15 0.1125 -0.05
0.1625 0.1125 -0.05
0.175 0.1125 -0.05
0.1875 0.1125 -0.05
0.2 0.1125 -0.05
0.2125 0.1125 -0.05
0.225 0.1125 -0.05
0.2375 0.1125 -0.05
0.25 0.1125 -0.05
0.2625 0.1125 -0.05
0.275 0.1125 -0.05
0.2875 0.1125 -0.05
0.3 0.1125 -0.05
0.3125 0.1125 -0.05
0.325 0.1125 -0.05
0.3375 0.1125 -0.05
0.35 0.1125 -0.05
0.3625 0.1125 -0.05
0.375 0.1125 -0.05
0.3875 0.1125 -0.05
0.4 0.1125 -0.05
0.4125 0.1125 -0.05
0.425 0.1125 -0.05
0.4375 0.1125 -0.05
0.45 0.1125 -0.05
0.4625 0.1125 -0.05
0.475 0.1125 -0.05
0.4875 0.1125 -0.05
0.5 0.1125 -0.05
0.5125 0.1125 -0.05
0.525 0.1125 -0.05
0.5375 0.1125 -0.05
0.55 0.1125 -0.05
0.5625 0.1125 -0.05
0.575 0.1125 -0.05
0.5875 0.1125 -0.05
0.6 0.1125 -0.05
0.0 0.125 -0.05
0.0125 0.125 -0.05
0.025 0.125 -0.05
0.0375 0.125 -0.05
0.05 0.125 -0.05
0.0625 0.125 -0.05
0.075 0.125 -0.05
0.0875 0.125 -0.05
0.1 0.125 -0.05
0.1125 0.125 -0.05
0.125 0.125 -0.05
0.1375 0.125 -0.05
0.15 0.125 -0.05
0.1625 0.125 -0.05
0.175 0.125 -0.05
0.1875 0.125 -0.05
0.2 0.125 -0.05
0.2125 0.125 -0.05
0.225 0.125 -0.05
0.2375 0.125 -0.05
0.25 0.125 -0.05
0.2625 0.125 -0.05
0.275 0.125 -0.05
0.2875 0.125 -0.05
0.3 0.125 -0.05
0.3125 0.125 -0.05
0.325 0.125 -0.05
0.3375 0.125 -0.05
0.35 0.125 -0.05
0.3625 0.125 -0.05
0.375 0.125 -0.05
0.3875 0.125 -0.05
0.4 0.125 -0.05
0.4125 0.125 -0.05
0.425 0.125 -0.05
0.4375 0.125 -0.05
0.45 0.125 -0.05
0.4625 0.125 -0.05
0.475 0.125 -0.05
0.4875 0.125 -0.05
0.5 0.125 -0.05
0.5125 0.125 -0.05
0.525 0.125 -0.05
0.5375 0.125 -0.05
0.55 0.125 -0.05
0.5625 0.125 -0.05
0.575 0.125 -0.05
0.5875 0.125 -0.05
0.6 0.125 -0.05
0.0 0.1375 -0.05
0.0125 0.1375 -0.05
0.025 0.1375 -0.05
0.0375 0.1375 -0.05
0.05 0.1375 -0.05
0.0625 0.1375 -0.05
0.075 0.1375 -0.05
0.0875 0.1375 -0.05
[...]
CELL_DATA 16128
SCALARS P float 1
LOOKUP_TABLE default
100000.00000008584
100000.00000026549
100000.00000082812
100000.00000258972
100000.00000810395
100000.00002536138
100000.00007935661
100000.00024825564
100000.00077645475
100000.0024279283
100000.00759033984
100000.02372444728
100000.07413858657
100000.23163775967
100000.72359255055
100002.25995371224
100007.05703193694
100022.03153781248
100068.75622705881
100214.41406646244
100667.36710269863
102066.47508991373
106312.14090748588
118639.614964991
151003.68176269316
221871.53439395325
344337.6331120295
509728.69946621824
685816.3171384585
835573.7651835136
940156.5159479995
1.0036063701377007e6
1.0401850327233628e6
1.0624895860339794e6
1.0780514249166064e6
1.090531412259323e6
1.1014872265485818e6
1.1115112344201817e6
1.1207973577223609e6
1.1293872234521157e6
1.1372669598615514e6
1.144402243685244e6
1.150750406344901e6
1.1562649764425452e6
1.1608979872326087e6
1.1646048748782603e6
1.167582315325164e6
1.1896397813898136e6
100000.00000008519
100000.00000026358
100000.00000082211
100000.00000257099
100000.0000080447
100000.00002517301
100000.00007875724
100000.00024634833
100000.0007703856
100000.00240861787
100000.00752890509
100000.02352902433
100000.07351708124
100000.22966179266
100000.71731322582
100002.24001314468
100006.9937796645
100021.83126590976
100068.12411133178
100212.43041265983
100661.21249849166
102047.8281973137
106258.48534085156
118501.99271464418
150731.26475424375
221584.8849995224
344625.2332040617
511693.51556508505
690581.4288317933
843591.9208496808
951044.4427728815
1.0165878772922853e6
1.0545582036843195e6
1.0777916948582693e6
1.0940259610470526e6
1.1070512332476946e6
1.1184941952170318e6
1.1289789556256123e6
1.1387099747699555e6
1.1477273868346887e6
1.156008661302948e6
1.1635063616310076e6
1.170162272526871e6
1.1759143297451658e6
1.1807026271580753e6
1.1844818104829823e6
1.1875340646980077e6
1.2100309667587504e6
100000.00000008395
100000.0000002594
100000.00000080912
100000.0000025292
100000.00000791208
100000.00002475122
100000.000077415
100000.00024207744
100000.00075679658
100000.00236538136
100000.00739135107
100000.02309145183
100000.0721253261
100000.22523608459
100000.70324405644
100002.19530796542
100006.85182325098
100021.38096505207
100066.69811676267
100207.92821029274
100647.08315202803
102004.06481024314
106126.91519652764
118132.31759106522
149829.87575507254
219831.58190635339
342006.82399952476
508699.0080612279
687978.7069530213
841943.4240329277
950430.0868297578
1.0167480987436012e6
1.0551705462521436e6
1.0786114157070538e6
1.0948992948799888e6
1.1078880290111774e6
1.119241665450359e6
1.1296046426511784e6
1.1391921729414403e6
1.148050252906211e6
1.1561600681960913e6
1.1634773837103553e6
1.1699477153623723e6
1.175513908615705e6
1.1801223329498726e6
1.1837390136326384e6
1.186797895814072e6
1.2095416902547004e6
100000.00000008196
100000.00000025339
100000.00000078943
100000.00000246697
100000.00000771412
100000.00002412123
100000.00007541107
100000.00023570261
100000.00073651751
100000.00230087296
100000.0071861551
100000.02243877869
100000.07004951473
100000.2186347551
100000.68225438111
100002.12858417403
100006.63978691553
100020.70749840363
100064.56093578454
100201.15779726613
100625.71986801563
101937.31683414026
105923.42777263882
117547.7602479839
148354.98073025412
216817.41205361314
337180.8035716546
502583.8078085467
681705.404308583
836539.3399245345
946256.7132370729
1.0135857888475312e6
1.052624374595661e6
1.0763632030560498e6
1.092753540135371e6
1.1057392952795755e6
1.1170376360100273e6
1.127322030976097e6
1.1368236079719586e6
1.1455977279980562e6
1.1536317395345375e6
1.1608858057535545e6
1.167308387037795e6
1.172843320936009e6
1.1774349751512283e6
1.1810505733287544e6
1.1842939162072039e6
1.2074766987956043e6
100000.00000007945
100000.00000024526
100000.00000076402
100000.00000238608
100000.0000074568
100000.00002330303
100000.00007280956
100000.00022742974
100000.0007102097
100000.00221721476
100000.00692012731
100000.02159283511
100000.06735952677
100000.21008109553
100000.65505604558
100002.04210437434
100006.36483567489
100019.83345507938
100061.78343530197
100192.3404219356
100597.81055798473
101849.71490965965
105654.55982309612
116767.61110739708
146358.1243219546
212665.66618228093
330419.23409039003
493881.3961068882
672647.9675450188
828627.3014081089
940059.8966006136
1.0088213316252924e6
1.0487363547650476e6
1.0729005312671182e6
1.0894433997455402e6
1.1024394526223063e6
1.113681160090315e6
1.123881576867959e6
1.1332923434301852e6
1.1419799637599306e6
1.1499383112313827e6
1.1571313901501196e6
1.163509289113428e6
1.1690150478412402e6
1.173589949585944e6
1.177207978810249e6
1.18066947307035e6
1.204424070495025e6
100000.00000007624
100000.0000002356
100000.00000073324
100000.00000228855
100000.00000714674
100000.00002231819
100000.00006967879
100000.00021747912
100000.000678583
100000.00211669327
100000.006600628
100000.02057730549
100000.06413153518
100000.19981995186
100000.62243560508
100001.93839407404
100006.03507679251
100018.78487024778
100058.44933454598
100181.74594955803
100564.22718484688
101744.06854575098
105329.16435398723
115817.69016234881
143901.68700891442
207490.13081450984
321881.3283742189
482776.48507337144
661003.476048721
818423.7437491602
932090.0096459558
1.0027400184814867e6
1.0438126279983905e6
1.0685327003777113e6
1.0852673929651058e6
1.0982670451712096e6
1.1094248952391287e6
1.1195059471704292e6
1.128787894749763e6
1.137350796155511e6
1.1451961350737575e6
1.1522923282762084e6
1.1585915911149634e6
1.164037088536939e6
1.1685694862243459e6
1.1721783877377496e6
1.1758816737823302e6
1.2003486787395312e6
100000.00000007269
100000.00000022438
100000.000000698
100000.00000217653
100000.0000067915
100000.00002119008
100000.0000660959
100000.00020609926
100000.00064243915
100000.00200189375
100000.0062359942
100000.01941908065
100000.06045229576
100000.18813132888
100000.58529734626
100001.82037659017
100005.65997482507
100017.59245367613
100054.65856842522
100169.70060568037
100526.03600378481
101623.83946484004
104958.15740965516
114729.59733783797
141060.39572198733
201418.09845314184
311714.980488774
469378.5510274945
646805.3274242622
805903.0875306585
922311.3365051842
995329.516042912
1.0378685336958928e6
1.0632920518347344e6
1.0802626320018272e6
1.093254838384499e6
1.1042912766043486e6
1.1142033190563521e6
1.1233014525091413e6
1.1316824959226577e6
1.1393573938275906e6
1.1463005382242224e6
1.1524681259684125e6
1.1578060589103983e6
1.1622585851475028e6
1.165840868117512e6
1.1698085181131011e6
1.1951607071587136e6
100000.00000006886
100000.00000021192
100000.00000065885
100000.00000205297
100000.00000639929
100000.00001994535
100000.00006214587
100000.00019356397
100000.0006026599
100000.0018756605
100000.0058354046
100000.01814779537
100000.05641755786
100000.175324862
100000.5446437276
100001.69130227958
100005.25008876262
100016.29058665909
100050.5233733358
100156.57154174133
100484.43735909442
101492.91745542921
104553.77093316238
113538.78970993143
137919.0426898288
194595.65401175516
300087.8855103648
453800.12046450377
630057.9147056189
790978.8058447543
910610.1783505954
986498.5424295742
1.0308477591750582e6
1.0571482531990171e6
1.0744114699500538e6
1.0873871352628255e6
1.0982591157453167e6
1.1079418592393815e6
1.1167867001135754e6
1.1249112099214278e6
1.1323383119871393e6
1.1390507779957878e6
1.1450118205634968e6
1.1501742513496645e6
1.1544920360811448e6
1.1580183962761192e6
1.1622733196675768e6
1.1887286962773155e6
100000.0000000644
100000.00000019863
100000.00000061696
100000.00000192026
100000.00000597863
100000.00001861164
100000.00005791805
100000.00018016204
100000.00056017721
100000.00174099841
100000.00540855384
100000.01679474532
100000.05212842899
100000.16172752855
100000.50153345833
100001.55460406202
100004.81656871192
100014.9155512245
100046.162015921
100142.74463307692
100440.68810071271
101355.35885445838
104128.73857400857
112282.45860222552
134568.92108609475
187186.5080421847
287196.4346847529
436181.36196406
610775.6830071108
773549.985593563
896842.59695121
976123.1597637326
1.0226664149371319e6
1.050049695099521e6
1.0676798584011851e6
1.080634859080842e6
1.091295235200027e6
1.1006777179040648e6
1.1091838877612408e6
1.1169566932855754e6
1.1240339467913127e6
1.1304097365590793e6
1.1360582879915468e6
1.140945187857673e6
1.1450431056070342e6
1.1484610809326028e6
1.1530244091700949e6
1.180871001974109e6
100000.00000005994
100000.00000018465
100000.00000057291
100000.00000178124
100000.00000553837
100000.00001721764
100000.00005350432
100000.00016618805
100000.00051593872
100000.00160095807
100000.00496526761
100000.01539160307
100000.04768708129
100000.14766921297
100000.45703271874
100001.4137317127
100004.37059044032
100013.50359539043
100041.69217662145
100128.6019808685
100396.02616132847
101215.14092930019
103695.54035552574
110997.47441241302
131103.73804792785
179368.09354115953
273267.33220925584
416700.26247431984
588999.3820271536
753517.7150399939
880847.4026313572
964057.1321949834
1.0132225914474236e6
1.0419330332225562e6
1.060026858310633e6
1.0729647937660972e6
1.0833631957142232e6
1.0923629917130575e6
1.1004266892564842e6
1.107727522007246e6
1.114320919105376e6
1.1202150807596983e6
1.1253996230460273e6
1.1298604227809333e6
1.133601805708751e6
1.1368155025351625e6
1.1416991220014049e6
1.171338142372467e6
100000.00000005537
100000.00000017037
100000.0000005278
100000.00000163841
100000.00000508728
100000.00001579146
100000.00004899455
100000.00015193087
100000.00047087131
100000.00145851684
100000.00451511449
100000.01396913131
100000.04319246935
100000.13346842353
100000.4121673845
100001.27199174486
100003.92281839147
100012.08913436164
100037.22494658906
100114.50202326119
100351.60545846871
101075.95303728642
103265.75594392371
109718.52503694702
127615.34641142753
171326.06533057158
258556.02237249378
395578.6572031206
564807.6730039261
730795.8881184804
862451.9564075491
950133.9710820332
1.0023976916875137e6
1.0327254757245289e6
1.051408197458663e6
1.0643442100155908e6
1.0744287030685546e6
1.0829516117681484e6
1.090448173825872e6
1.0971264915739368e6
1.103061110430404e6
1.1082756333040106e6
1.1127782875139033e6
1.1165834297403267e6
1.1197443313413474e6
1.1225759555828758e6
1.1277610148173624e6
1.1597822451421937e6
100000.0000000505
100000.00000015584
100000.00000048225
100000.00000149464
100000.00000463381
100000.00001435926
100000.00004447412
100000.00013766317
100000.00042584885
100000.00131647241
100000.00406705124
100000.01255601422
100000.03873647998
100000.11941957871
100000.36788104079
100001.13240883526
100003.48294915758
100010.70325178695
100032.85993383307
100100.76367199825
100308.44493055825
100941.03452100637
102849.55504414706
108476.54805291681
124189.57275186502
163247.59385439332
243342.692463924
373086.209861184
538328.3362261703
705322.6815903437
841477.8319062131
934167.2705234339
990055.2350698218
1.022344651519553e6
1.0417780246427282e6
1.0547445116418719e6
1.0644649723746926e6
1.0724062480518473e6
1.079188994706588e6
1.0850595264429501e6
1.0901100408653265e6
1.094376818683192e6
1.0978851614908683e6
1.1006833959968493e6
1.1028927196852711e6
1.1050081741461162e6
1.1103871048139688e6
1.1456948952004174e6
100000.00000004606
100000.00000014146
100000.00000043704
100000.00000135253
100000.00000418532
100000.00001294616
100000.00004002075
100000.00012363387
100000.00038166366
100000.00117735029
100000.00362912581
100000.01117789237
100000.0344007847
100000.1057827714
100000.32500173741
100000.99761815826
100003.05936426746
100009.37258631169
100028.68171747432
100087.65510634313
100267.39332375464
100813.06385472493
102455.34190176302
107297.54091796247
120902.43851827618
155313.75912834718
227925.7229863151
349542.0979174163
509749.50603618455
677074.3392244459
817748.6936110667
915951.4901464612
976038.7117030305
1.0106971459209293e6
1.0310896274678024e6
1.0441444979484488e6
1.0534586259936094e6
1.0607069918878346e6
1.066609050661459e6
1.0714503130759895e6
1.0753337432892467e6
1.078297981884615e6
1.08037243814812e6
1.0816285607809224e6
1.0822680026009323e6
1.0830340451842172e6
1.0882614968866478e6
1.1282519448997346e6
100000.00000004143
100000.00000012734
100000.00000039287
100000.0000012138
100000.00000374884
100000.00001157331
100000.00003570325
100000.0001100606
100000.00033900623
100000.0010433359
100000.00320825541
100000.00985664742
100000.03025456004
100000.09277650868
100000.28421899531
100000.86979302939
100002.6589043099
100008.11863346233
100024.75771491652
100075.38733095373
100229.10982842102
100694.0992989667
102089.5591632302
106201.80616863549
117817.08214417091
147691.49886037302
212612.37653875723
325313.4755331503
479330.0881996726
646081.4611777489
791101.5575554817
895264.3698903387
960169.1647586194
997675.9290816988
1.0192950651562626e6
1.0325330528742505e6
1.0414159243376199e6
1.0478618191725668e6
1.0527032484650644e6
1.056262769180918e6
1.058639596811761e6
1.0598460335460205e6
1.0598844899304267e6
1.0588107931208755e6
1.056870022676431e6
1.055092791412181e6
1.0592140380478655e6
1.1058541069221024e6
100000.00000003715
100000.00000011374
100000.00000035051
100000.00000108025
100000.00000333022
100000.0000102591
100000.00003157972
100000.00009712538
100000.00029844846
100000.0009162272
100000.00281008247
100000.00860996138
100000.02635312804
100000.08057357921
100000.24607139672
100000.75060828037
100002.28676339165
100006.95745121824
100021.13739660374
100064.11220538756
100194.05944237848
100585.56749375939
101756.64396875091
105203.6503427188
114981.6565563199
140525.77446885806
197706.77237616386
300809.6491194451
447407.89689828746
612447.2491762646
761402.1881282814
871872.02960326
942243.0412842537
983156.6566274234
1.0063433126081632e6
1.0199105834950341e6
1.0283684333123364e6
1.0339177960843169e6
1.0375202871557486e6
1.0395300481778986e6
1.0400172646456364e6
1.0389253786653074e6
1.0361526315595458e6
1.0316332070766514e6
1.0255264447928153e6
1.0190547855310686e6
1.019695666758175e6
1.0746040254116512e6
100000.00000003293
100000.00000010089
100000.00000031012
100000.00000095395
100000.00000293409
100000.00000901888
100000.00002769589
100000.00008497217
100000.00026043839
100000.00079741454
100000.00243891378
100000.00745114307
100000.022737497
100000.06929991039
100000.21094412434
100000.64123668624
100001.94649302297
100005.89972648985
100017.85268617605
100053.92435128333
100162.5209784111
100488.29321416735
101459.11772649619
104311.51260864375
112428.38727940743
133932.78826872163
183495.6445113393
276471.05137764197
414403.6463776
576366.4672977896
728565.0425949183
845537.9003453043
922030.9944242969
966992.8020756587
992176.3007879112
1.0062880921186366e6
1.0143764713014939e6
1.0189707938765149e6
1.021181754296631e6
1.0213918683468223e6
1.0196118940847085e6
1.015643687902295e6
1.0091504476005674e6
999719.8359227019
987071.7461891479
972131.6376816569
963506.9641239467
1.0204012142878935e6
100000.00000002903
100000.00000008877
100000.00000027214
100000.00000083561
100000.00000256438
100000.00000786295
100000.00002408653
100000.00007370613
100000.00022529821
100000.00068788025
100000.00209773179
100000.00638919896
100000.01943469963
100000.05903605848
100000.17907512795
100000.54237355739
100001.64009761841
100004.95113840207
100014.91931831323
100044.86613992133
100134.60497903182
100402.56123737273
101197.7821818707
103528.45976847771
110173.84041419106
127995.12985719221
170232.95429925568
252752.52193940672
380818.71463394
538143.1082029173
692577.653827459
816036.746230617
899278.6419698503
949009.7586309343
976722.1854973745
991682.3875726667
999527.6463954966
1.0031687243232079e6
1.0038983395422399e6
1.002132817864081e6
997795.3881529095
990460.0399744601
979338.1031782661
963096.1800053574
939382.1409377579
903730.6721007591
846997.2202389826
743662.4488880582
100000.00000002533
100000.00000007752
100000.00000023712
100000.00000072607
100000.00000222314
100000.00000679946
100000.00002077402
100000.00006339575
100000.00019322985
100000.00058821977
100000.00178826929
100000.00542910738
100000.01645879596
100000.04982082918
100000.15056813942
100000.45428324219
100001.36819974134
100004.11294238294
100012.33889184213
100036.93486039594
100110.2784818186
100328.2001189819
100971.9892226624
102852.95527107248
108220.29392681994
122759.58487847258
158125.01897677954
230101.12665710348
347224.66264050425
498203.9529016681
653528.5203611825
783175.0209564727
873710.7543813419
928998.492238352
959885.4697300458
976106.0819645727
983927.7653421919
986705.5808858477
985966.9071487268
982196.4838885868
975253.742434904
964523.911330055
948872.6666951324
926395.8791251703
893877.753501069
845804.3813509999
772833.6501855829
658911.6898851814
100000.00000002202
100000.00000006713
100000.00000020477
100000.00000062627
100000.00000191198
100000.00000583258
100000.00001777048
100000.00005407455
100000.0001643259
100000.0004986759
100000.00151113307
100000.00457224954
100000.01381236607
100000.04165645239
100000.12541054697
100000.37686071936
100001.1302518062
100003.38269582574
100010.10134961664
100030.09116176031
100089.39358391687
100264.67765802695
100779.95069937763
102279.79526774466
106557.96657363018
118237.98798363162
147318.25442813782
208929.7717529066
314242.97802496445
457104.53871803684
611636.4059731382
746818.4933999159
845040.8875377533
906710.0704326365
941534.313777617
959551.5486693134
967680.3958290832
969793.2338395177
967721.1994520407
962081.6421938735
952741.3855818035
939013.9283044866
919651.8995123098
892675.6319925004
855055.96057886
802336.0138808063
728587.9223476908
627552.4298120308
100000.00000001905
100000.00000005771
100000.00000017587
100000.00000053566
100000.00000163176
100000.00000496341
100000.00001507883
100000.00004574598
100000.00013858236
100000.00041918615
100000.00126596178
100000.00381694314
100000.01148832295
100000.03451471796
100000.10349413814
100000.30970158684
100000.92477177955
100002.75505027006
100008.18763498179
100024.26793676575
100071.71703593999
100211.19879254124
100619.05705449697
101801.10529520319
105167.76984047028
114411.00221936034
137891.69255105406
189589.10245658565
282514.5325019993
415523.7514265848
567277.4958959322
706927.2687016405
812988.9419607493
881853.4952932935
921487.121691204
941972.0253784729
950862.9572205805
952622.4823661332
949470.3205350152
942235.2727377617
930882.2844392537
914778.4246378074
892761.022337457
863087.8809922424
823351.3602733477
770518.8794929482
701487.9992460693
614768.3446367623
100000.00000001625
100000.00000004917
100000.00000014981
100000.00000045497
100000.00000138176
100000.00000419075
100000.00001269332
100000.0000383881
100000.0001159142
100000.00034943498
100000.00105160086
100000.00315903201
100000.00947187895
100000.02834352686
100000.08463688567
100000.25217441242
100000.74958301023
100002.22254483913
100006.57231115107
100019.37894876588
100056.95857754086
100166.79834369752
100486.17888636808
101407.30457762121
104024.22696524444
111234.19151176534
129855.92985439538
172341.3838727385
252659.83977995883
374243.62536561233
521005.3208834154
663596.7964693299
777309.0936641267
854099.9839073962
899500.898397101
923261.6807902718
933501.7473406123
935333.2818914031
931454.7763469638
922993.0007831171
910099.1947854267
892294.0227977356
868620.0198845404
837700.3387763903
797805.6886067658
747078.5725059138
684161.9083374314
609483.296294793
100000.00000001378
100000.00000004165
100000.00000012653
100000.00000038346
100000.00000116114
100000.00000351123
100000.00001060135
100000.00003195781
100000.00009617301
100000.0002889085
100000.00086628595
100000.00259248613
100000.00774251894
100000.02307337834
100000.06860423705
100000.20349044465
100000.60204204649
100001.7763490854
100005.22597757626
100015.32667233894
100044.7963213442
100130.42309713532
100377.93257398863
101087.96696968567
103098.2453680214
108645.38229032593
123159.063255818
157340.83751952398
225233.28633457827
334112.23933465837
473557.168745799
617101.1603872647
737829.7786466349