# vtk DataFile Version 2.0
JuliaCFD
ASCII
DATASET UNSTRUCTURED_GRID

POINTS 32898 float
0.0 0.0 -0.05
0.0125 0.0 -0.05
0.025 0.0 -0.05
0.0375 0.0 -0.05
0.05 0.0 -0.05
0.0625 0.0 -0.05
0.075 0.0 -0.05
0.0875 0.0 -0.05
0.1 0.0 -0.05
0.1125 0.0 -0.05
0.125 0.0 -0.05
0.1375 0.0 -0.05
0.15 0.0 -0.05
0.1625 0.0 -0.05
0.175 0.0 -0.05
0.1875 0.0 -0.05
0.2 0.0 -0.05
0.2125 0.0 -0.05
0.225 0.0 -0.05
0.2375 0.0 -0.05
0.25 0.0 -0.05
0.2625 0.0 -0.05
0.275 0.0 -0.05
0.2875 0.0 -0.05
0.3 0.0 -0.05
0.3125 0.0 -0.05
0.325 0.0 -0.05
0.3375 0.0 -0.05
0.35 0.0 -0.05
0.3625 0.0 -0.05
0.375 0.0 -0.05
0.3875 0.0 -0.05
0.4 0.0 -0.05
0.4125 0.0 -0.05
0.425 0.0 -0.05
0.4375 0.0 -0.05
0.45 0.0 -0.05
0.4625 0.0 -0.05
0.475 0.0 -0.05
0.4875 0.0 -0.05
0.5 0.0 -0.05
0.5125 0.0 -0.05
0.525 0.0 -0.05
0.5375 0.0 -0.05
0.55 0.0 -0.05
0.5625 0.0 -0.05
0.575 0.0 -0.05
0.5875 0.0 -0.05
0.6 0.0 -0.05
0.0 0.0125 -0.05
0.0125 0.0125 -0.05
0.025 0.0125 -0.05
0.0375 0.0125 -0.05
0.05 0.0125 -0.05
0.0625 0.0125 -0.05
0.075 0.0125 -0.05
0.0875 0.0125 -0.05
0.1 0.0125 -0.05
0.1125 0.0125 -0.05
0.125 0.0125 -0.05
0.1375 0.0125 -0.05
0.15 0.0125 -0.05
0.1625 0.0125 -0.05
0.175 0.0125 -0.05
0.1875 0.0125 -0.05
0.2 0.0125 -0.05
0.2125 0.0125 -0.05
0.225 0.0125 -0.05
0.2375 0.0125 -0.05
0.25 0.0125 -0.05
0.2625 0.0125 -0.05
0.275 0.0125 -0.05
0.2875 0.0125 -0.05
0.3 0.0125 -0.05
0.3125 0.0125 -0.05
0.325 0.0125 -0.05
0.3375 0.0125 -0.05
0.35 0.0125 -0.05
0.3625 0.0125 -0.05
0.375 0.0125 -0.05
0.3875 0.0125 -0.05
0.4 0.0125 -0.05
0.4125 0.0125 -0.05
0.425 0.0125 -0.05
0.4375 0.0125 -0.05
0.45 0.0125 -0.05
0.4625 0.0125 -0.05
0.475 0.0125 -0.05
0.4875 0.0125 -0.05
0.5 0.0125 -0.05
0.5125 0.0125 -0.05
0.525 0.0125 -0.05
0.5375 0.0125 -0.05
0.55 0.0125 -0.05
0.5625 0.0125 -0.05
0.575 0.0125 -0.05
0.5875 0.0125 -0.05
0.6 0.0125 -0.05
0.0 0.025 -0.05
0.0125 0.025 -0.05
0.025 0.025 -0.05
0.0375 0.025 -0.05
0.05 0.025 -0.05
0.0625 0.025 -0.05
0.075 0.025 -0.05
0.0875 0.025 -0.05
0.1 0.025 -0.05
0.1125 0.025 -0.05
0.125 0.025 -0.05
0.1375 0.025 -0.05
0.15 0.025 -0.05
0.1625 0.025 -0.05
0.175 0.025 -0.05
0.1875 0.025 -0.05
0.2 0.025 -0.05
0.2125 0.025 -0.05
0.225 0.025 -0.05
0.2375 0.025 -0.05
0.25 0.025 -0.05
0.2625 0.025 -0.05
0.275 0.025 -0.05
0.2875 0.025 -0.05
0.3 0.025 -0.05
0.3125 0.025 -0.05
0.325 0.025 -0.05
0.3375 0.025 -0.05
0.35 0.025 -0.05
0.3625 0.025 -0.05
0.375 0.025 -0.05
0.3875 0.025 -0.05
0.4 0.025 -0.05
0.4125 0.025 -0.05
0.425 0.025 -0.05
0.4375 0.025 -0.05
0.45 0.025 -0.05
0.4625 0.025 -0.05
0.475 0.025 -0.05
0.4875 0.025 -0.05
0.5 0.025 -0.05
0.5125 0.025 -0.05
0.525 0.025 -0.05
0.5375 0.025 -0.05
0.55 0.025 -0.05
0.5625 0.025 -0.05
0.575 0.025 -0.05
0.5875 0.025 -0.05
0.6 0.025 -0.05
0.0 0.0375 -0.05
0.0125 0.0375 -0.05
0.025 0.0375 -0.05
0.0375 0.0375 -0.05
0.05 0.0375 -0.05
0.0625 0.0375 -0.05
0.075 0.0375 -0.05
0.0875 0.0375 -0.05
0.1 0.0375 -0.05
0.1125 0.0375 -0.05
0.125 0.0375 -0.05
0.1375 0.0375 -0.05
0.15 0.0375 -0.05
0.1625 0.0375 -0.05
0.175 0.0375 -0.05
0.1875 0.0375 -0.05
0.2 0.0375 -0.05
0.2125 0.0375 -0.05
0.225 0.0375 -0.05
0.2375 0.0375 -0.05
0.25 0.0375 -0.05
0.2625 0.0375 -0.05
0.275 0.0375 -0.05
0.2875 0.0375 -0.05
0.3 0.0375 -0.05
0.3125 0.0375 -0.05
0.325 0.0375 -0.05
0.3375 0.0375 -0.05
0.35 0.0375 -0.05
0.3625 0.0375 -0.05
0.375 0.0375 -0.05
0.3875 0.0375 -0.05
0.4 0.0375 -0.05
0.4125 0.0375 -0.05
0.425 0.0375 -0.05
0.4375 0.0375 -0.05
0.45 0.0375 -0.05
0.4625 0.0375 -0.05
0.475 0.0375 -0.05
0.4875 0.0375 -0.05
0.5 0.0375 -0.05
0.5125 0.0375 -0.05
0.525 0.0375 -0.05
0.5375 0.0375 -0.05
0.55 0.0375 -0.05
0.5625 0.0375 -0.05
0.575 0.0375 -0.05
0.5875 0.0375 -0.05
0.6 0.0375 -0.05
0.0 0.05 -0.05
0.0125 0.05 -0.05
0.025 0.05 -0.05
0.0375 0.05 -0.05
0.05 0.05 -0.05
0.0625 0.05 -0.05
0.075 0.05 -0.05
0.0875 0.05 -0.05
0.1 0.05 -0.05
0.1125 0.05 -0.05
0.125 0.05 -0.05
0.1375 0.05 -0.05
0.15 0.05 -0.05
0.1625 0.05 -0.05
0.175 0.05 -0.05
0.1875 0.05 -0.05
0.2 0.05 -0.05
0.2125 0.05 -0.05
0.225 0.05 -0.05
0.2375 0.05 -0.05
0.25 0.05 -0.05
0.2625 0.05 -0.05
0.275 0.05 -0.05
0.2875 0.05 -0.05
0.3 0.05 -0.05
0.3125 0.05 -0.05
0.325 0.05 -0.05
0.3375 0.05 -0.05
0.35 0.05 -0.05
0.3625 0.05 -0.05
0.375 0.05 -0.05
0.3875 0.05 -0.05
0.4 0.05 -0.05
0.4125 0.05 -0.05
0.425 0.05 -0.05
0.4375 0.05 -0.05
0.45 0.05 -0.05
0.4625 0.05 -0.05
0.475 0.05 -0.05
0.4875 0.05 -0.05
0.5 0.05 -0.05
0.5125 0.05 -0.05
0.525 0.05 -0.05
0.5375 0.05 -0.05
0.55 0.05 -0.05
0.5625 0.05 -0.05
0.575 0.05 -0.05
0.5875 0.05 -0.05
0.6 0.05 -0.05
0.0 0.0625 -0.05
0.0125 0.0625 -0.05
0.025 0.0625 -0.05
0.0375 0.0625 -0.05
0.05 0.0625 -0.05
0.0625 0.0625 -0.05
0.075 0.0625 -0.05
0.0875 0.0625 -0.05
0.1 0.0625 -0.05
0.1125 0.0625 -0.05
0.125 0.0625 -0.05
0.1375 0.0625 -0.05
0.15 0.0625 -0.05
0.1625 0.0625 -0.05
0.175 0.0625 -0.05
0.1875 0.0625 -0.05
0.2 0.0625 -0.05
0.2125 0.0625 -0.05
0.225 0.0625 -0.05
0.2375 0.0625 -0.05
0.25 0.0625 -0.05
0.2625 0.0625 -0.05
0.275 0.0625 -0.05
0.2875 0.0625 -0.05
0.3 0.0625 -0.05
0.3125 0.0625 -0.05
0.325 0.0625 -0.05
0.3375 0.0625 -0.05
0.35 0.0625 -0.05
0.3625 0.0625 -0.05
0.375 0.0625 -0.05
0.3875 0.0625 -0.05
0.4 0.0625 -0.05
0.4125 0.0625 -0.05
0.425 0.0625 -0.05
0.4375 0.0625 -0.05
0.45 0.0625 -0.05
0.4625 0.0625 -0.05
0.475 0.0625 -0.05
0.4875 0.0625 -0.05
0.5 0.0625 -0.05
0.5125 0.0625 -0.05
0.525 0.0625 -0.05
0.5375 0.0625 -0.05
0.55 0.0625 -0.05
0.5625 0.0625 -0.05
0.575 0.0625 -0.05
0.5875 0.0625 -0.05
0.6 0.0625 -0.05
0.0 0.075 -0.05
0.0125 0.075 -0.05
0.025 0.075 -0.05
0.0375 0.075 -0.05
0.05 0.075 -0.05
0.0625 0.075 -0.05
0.075 0.075 -0.05
0.0875 0.075 -0.05
0.1 0.075 -0.05
0.1125 0.075 -0.05
0.125 0.075 -0.05
0.1375 0.075 -0.05
0.15 0.075 -0.05
0.1625 0.075 -0.05
0.175 0.075 -0.05
0.1875 0.075 -0.05
0.2 0.075 -0.05
0.2125 0.075 -0.05
0.225 0.075 -0.05
0.2375 0.075 -0.05
0.25 0.075 -0.05
0.2625 0.075 -0.05
0.275 0.075 -0.05
0.2875 0.075 -0.05
0.3 0.075 -0.05
0.3125 0.075 -0.05
0.325 0.075 -0.05
0.3375 0.075 -0.05
0.35 0.075 -0.05
0.3625 0.075 -0.05
0.375 0.075 -0.05
0.3875 0.075 -0.05
0.4 0.075 -0.05
0.4125 0.075 -0.05
0.425 0.075 -0.05
0.4375 0.075 -0.05
0.45 0.075 -0.05
0.4625 0.075 -0.05
0.475 0.075 -0.05
0.4875 0.075 -0.05
0.5 0.075 -0.05
0.5125 0.075 -0.05
0.525 0.075 -0.05
0.5375 0.075 -0.05
0.55 0.075 -0.05
0.5625 0.075 -0.05
0.575 0.075 -0.05
0.5875 0.075 -0.05
0.6 0.075 -0.05
0.0 0.0875 -0.05
0.0125 0.0875 -0.05
0.025 0.0875 -0.05
0.0375 0.0875 -0.05
0.05 0.0875 -0.05
0.0625 0.0875 -0.05
0.075 0.0875 -0.05
0.0875 0.0875 -0.05
0.1 0.0875 -0.05
0.1125 0.0875 -0.05
0.125 0.0875 -0.05
0.1375 0.0875 -0.05
0.15 0.0875 -0.05
0.1625 0.0875 -0.05
0.175 0.0875 -0.05
0.1875 0.0875 -0.05
0.2 0.0875 -0.05
0.2125 0.0875 -0.05
0.225 0.0875 -0.05
0.2375 0.0875 -0.05
0.25 0.0875 -0.05
0.2625 0.0875 -0.05
0.275 0.0875 -0.05
0.2875 0.0875 -0.05
0.3 0.0875 -0.05
0.3125 0.0875 -0.05
0.325 0.0875 -0.05
0.3375 0.0875 -0.05
0.35 0.0875 -0.05
0.3625 0.0875 -0.05
0.375 0.0875 -0.05
0.3875 0.0875 -0.05
0.4 0.0875 -0.05
0.4125 0.0875 -0.05
0.425 0.0875 -0.05
0.4375 0.0875 -0.05
0.45 0.0875 -0.05
0.4625 0.0875 -0.05
0.475 0.0875 -0.05
0.4875 0.0875 -0.05
0.5 0.0875 -0.05
0.5125 0.0875 -0.05
0.525 0.0875 -0.05
0.5375 0.0875 -0.05
0.55 0.0875 -0.05
0.5625 0.0875 -0.05
0.575 0.0875 -0.05
0.5875 0.0875 -0.05
0.6 0.0875 -0.05
0.0 0.1 -0.05
0.0125 0.1 -0.05
0.025 0.1 -0.05
0.0375 0.1 -0.05
0.05 0.1 -0.05
0.0625 0.1 -0.05
0.075 0.1 -0.05
0.0875 0.1 -0.05
0.1 0.1 -0.05
0.1125 0.1 -0.05
0.125 0.1 -0.05
0.1375 0.1 -0.05
0.15 0.1 -0.05
0.1625 0.1 -0.05
0.175 0.1 -0.05
0.1875 0.1 -0.05
0.2 0.1 -0.05
0.2125 0.1 -0.05
0.225 0.1 -0.05
0.2375 0.1 -0.05
0.25 0.1 -0.05
0.2625 0.1 -0.05
0.275 0.1 -0.05
0.2875 0.1 -0.05
0.3 0.1 -0.05
0.3125 0.1 -0.05
0.325 0.1 -0.05
0.3375 0.1 -0.05
0.35 0.1 -0.05
0.3625 0.1 -0.05
0.375 0.1 -0.05
0.3875 0.1 -0.05
0.4 0.1 -0.05
0.4125 0.1 -0.05
0.425 0.1 -0.05
0.4375 0.1 -0.05
0.45 0.1 -0.05
0.4625 0.1 -0.05
0.475 0.1 -0.05
0.4875 0.1 -0.05
0.5 0.1 -0.05
0.5125 0.1 -0.05
0.525 0.1 -0.05
0.5375 0.1 -0.05
0.55 0.1 -0.05
0.5625 0.1 -0.05
0.575 0.1 -0.05
0.5875 0.1 -0.05
0.6 0.1 -0.05
0.0 0.1125 -0.05
0.0125 0.1125 -0.05
0.025 0.1125 -0.05
0.0375 0.1125 -0.05
0.05 0.1125 -0.05
0.0625 0.1125 -0.05
0.075 0.1125 -0.05
0.0875 0.1125 -0.05
0.1 0.1125 -0.05
0.1125 0.1125 -0.05
0.125 0.1125 -0.05
0.1375 0.1125 -0.05
0.15 0.1125 -0.05
0.1625 0.1125 -0.05
0.175 0.1125 -0.05
0.1875 0.1125 -0.05
0.2 0.1125 -0.05
0.2125 0.1125 -0.05
0.225 0.1125 -0.05
0.2375 0.1125 -0.05
0.25 0.1125 -0.05
0.2625 0.1125 -0.05
0.275 0.1125 -0.05
0.2875 0.1125 -0.05
0.3 0.1125 -0.05
0.3125 0.1125 -0.05
0.325 0.1125 -0.05
0.3375 0.1125 -0.05
0.35 0.1125 -0.05
0.3625 0.1125 -0.05
0.375 0.1125 -0.05
0.3875 0.1125 -0.05
0.4 0.1125 -0.05
0.4125 0.1125 -0.05
0.425 0.1125 -0.05
0.4375 0.1125 -0.05
0.45 0.1125 -0.05
0.4625 0.1125 -0.05
0.475 0.1125 -0.05
0.4875 0.1125 -0.05
0.5 0.1125 -0.05
0.5125 0.1125 -0.05
0.525 0.1125 -0.05
0.5375 0.1125 -0.05
0.55 0.1125 -0.05
0.5625 0.1125 -0.05
0.575 0.1125 -0.05
0.5875 0.1125 -0.05
0.6 0.1125 -0.05
0.0 0.125 -0.05
0.0125 0.125 -0.05
0.025 0.125 -0.05
0.0375 0.125 -0.05
0.05 0.125 -0.05
0.0625 0.125 -0.05
0.075 0.125 -0.05
0.0875 0.125 -0.05
0.1 0.125 -0.05
0.1125 0.125 -0.05
0.125 0.125 -0.05
0.1375 0.125 -0.05
0.15 0.125 -0.05
0.1625 0.125 -0.05
0.175 0.125 -0.05
0.1875 0.125 -0.05
0.2 0.125 -0.05
0.2125 0.125 -0.05
0.225 0.125 -0.05
0.2375 0.125 -0.05
0.25 0.125 -0.05
0.2625 0.125 -0.05
0.275 0.125 -0.05
0.2875 0.125 -0.05
0.3 0.125 -0.05
0.3125 0.125 -0.05
0.325 0.125 -0.05
0.3375 0.125 -0.05
0.35 0.125 -0.05
0.3625 0.125 -0.05
0.375 0.125 -0.05
0.3875 0.125 -0.05
0.4 0.125 -0.05
0.4125 0.125 -0.05
0.425 0.125 -0.05
0.4375 0.125 -0.05
0.45 0.125 -0.05
0.4625 0.125 -0.05
0.475 0.125 -0.05
0.4875 0.125 -0.05
0.5 0.125 -0.05
0.5125 0.125 -0.05
0.525 0.125 -0.05
0.5375 0.125 -0.05
0.55 0.125 -0.05
0.5625 0.125 -0.05
0.575 0.125 -0.05
0.5875 0.125 -0.05
0.6 0.125 -0.05
0.0 0.1375 -0.05
0.0125 0.1375 -0.05
0.025 0.1375 -0.05
0.0375 0.1375 -0.05
0.05 0.1375 -0.05
0.0625 0.1375 -0.05
0.075 0.1375 -0.05
0.0875 0.1375 -0.05
[...]
CELL_DATA 16128
SCALARS P float 1
LOOKUP_TABLE default
100000.00000000805
99999.99999997835
100000.00000005162
99999.99999986727
100000.0000003485
99999.99999908866
100000.00000237193
99999.99999385104
100000.00001585599
99999.99995934492
100000.0001035451
99999.99973830603
100000.00065536554
99999.9983766892
100000.00396690913
99999.99046994228
100000.02238994572
99999.94897984952
100000.11118212798
99999.77450550707
100000.40058996041
99999.45337628608
100001.4322598068
99953.78346717048
101418.62294321918
158943.90799522452
378614.0961149824
706683.1826403949
952172.7100221852
1.0440993330292754e6
1.0679761532687393e6
1.0807800055676866e6
1.0923995141163128e6
1.1035190616568958e6
1.1141258248474104e6
1.1241968574364614e6
1.1337154318223726e6
1.1426649588613387e6
1.1510228534226457e6
1.1587661507798356e6
1.165849967614093e6
1.17226973491108e6
1.1778795801543808e6
1.1829307850102102e6
1.1864870238449601e6
1.1911190537936562e6
1.1890044172130523e6
1.2031047084825297e6
100000.00000000787
99999.99999997891
100000.00000005131
99999.99999986657
100000.00000035053
99999.99999908135
100000.00000239746
99999.99999376602
100000.00001612974
99999.99995848237
100000.00010621281
99999.99973018203
100000.00067976554
99999.99830435324
100000.00417865724
99999.9898579643
100000.02413545125
99999.94406918722
100000.12480469009
99999.73722457112
100000.50141488381
99999.18583045657
100002.04075326826
99955.397585082
101329.9852097289
157928.28874761675
377054.96628526546
707431.1690856175
957131.5549410303
1.0519051421297563e6
1.076972333596561e6
1.0903456086102254e6
1.1023058781257547e6
1.1136694687642506e6
1.1244848586175425e6
1.1347573756839624e6
1.1444813107891318e6
1.153642151793416e6
1.162214678324232e6
1.170170488945674e6
1.1774574990694432e6
1.1840621284517606e6
1.189829162625205e6
1.1949982174678594e6
1.198624253451097e6
1.2032782649135487e6
1.2010750951623765e6
1.2153780333012952e6
100000.00000000719
99999.99999998066
100000.00000005143
99999.99999986505
100000.00000035373
99999.99999906702
100000.00000244919
99999.99999358914
100000.00001671317
99999.99995660738
100000.00011212341
99999.99971183728
100000.00073599763
99999.99813375526
100000.00469176509
99999.98832592332
100000.0286817146
99999.93064774212
100000.1642593239
99999.62165117686
100000.83873400558
99998.21222369092
100004.6232667947
99954.86355678298
101142.92474462025
155271.34958866047
370426.71221746015
699412.1042306047
951180.8268752582
1.0479072231103076e6
1.0733578455894166e6
1.0866191057140601e6
1.0984112823285204e6
1.1095980891028782e6
1.1202277252898247e6
1.1303042530130572e6
1.1398225972474674e6
1.14877022721635e6
1.1571249053928712e6
1.1648617231182284e6
1.1719334533570139e6
1.1783303521880645e6
1.1839071122103047e6
1.1889001466323133e6
1.19239725708438e6
1.1969192737265686e6
1.19465305124641e6
1.2091542765853514e6
100000.00000000704
99999.99999998092
100000.00000005038
99999.99999986557
100000.00000035674
99999.99999905282
100000.0000025055
99999.99999338474
100000.00001741448
99999.99995428798
100000.00011959829
99999.99968821173
100000.00080954614
99999.99790757091
100000.00538037045
99999.98624726961
100000.03491057582
99999.91210274024
100000.21914986355
99999.46009009432
100001.31131803153
99996.84905787322
100008.22631166795
99954.24861618478
100878.35282680293
151179.15969955293
360106.5015173457
687549.8306735049
943932.6844600196
1.0448978043820441e6
1.0715780640190267e6
1.08503343145418e6
1.0968588191448317e6
1.10804412616805e6
1.11865789719148e6
1.1287135000806777e6
1.1382122949345054e6
1.1471464231305916e6
1.1554972137079411e6
1.163242048747187e6
1.170335820786491e6
1.1767673470125773e6
1.1823947318769353e6
1.1874386727175494e6
1.1910101771924538e6
1.1955633426576552e6
1.193319458253583e6
1.2081991440564676e6
100000.00000000677
99999.99999998136
100000.00000004958
99999.99999986665
100000.0000003561
99999.99999904748
100000.00000254175
99999.99999322694
100000.00001801529
99999.99995216656
100000.00012675716
99999.9996647968
100000.0008844181
99999.99767226817
100000.00610977702
99999.9840114926
100000.04169917459
99999.89165763611
100000.28028131534
99999.27851002126
100001.84699057517
99995.290524026
100012.39035223157
99953.2241508791
100579.90991928014
145893.7879084294
346260.461877979
671295.8365837699
933763.5775289728
1.0404923635533979e6
1.0687590134630115e6
1.0823170898631117e6
1.0940404019380966e6
1.1050967642085284e6
1.1155714688878423e6
1.1254821226323629e6
1.1348335450551934e6
1.1436210390416053e6
1.151829002174927e6
1.159437303596745e6
1.1664040091461414e6
1.172717880380754e6
1.1782440646128561e6
1.1831894406073128e6
1.186699841424858e6
1.1911617701974248e6
1.1888507320831e6
1.2041452149267294e6
100000.00000000655
99999.99999998201
100000.00000004793
99999.99999987008
100000.00000034907
99999.99999905888
100000.00000253129
99999.99999319344
100000.00001828204
99999.999950935
100000.00013155479
99999.99964760548
100000.00094300215
99999.99747922081
100000.00673075637
99999.98205004519
100000.0478066036
99999.87286004353
100000.33758137042
99999.10528129483
100002.3665877201
99993.7535790392
100016.57699848278
99951.55694673654
100294.2772742065
139728.44860203244
329193.7803010213
650609.8098126822
920535.7023413093
1.0348766462119691e6
1.0653806364341201e6
1.079116790816102e6
1.0907221287076543e6
1.1016266800317774e6
1.111939877147761e6
1.1216841922625946e6
1.1308685490746854e6
1.1394922226928081e6
1.1475435344711363e6
1.1550055948366118e6
1.1618403004759937e6
1.1680364979311381e6
1.173466632146645e6
1.178322262657116e6
1.1817846208749148e6
1.186171121333453e6
1.1837924434521825e6
1.199623087457143e6
100000.00000000613
99999.9999999831
100000.00000004495
99999.99999987672
100000.00000033336
99999.9999990951
100000.0000024521
99999.99999335363
100000.00001800698
99999.99995122019
100000.00013211428
99999.99964224057
100000.00096864818
99999.99737769717
100000.00709812022
99999.98078908045
100000.05198688837
99999.85933928181
100000.38051565981
99998.9708821565
100002.78221300144
99992.48944607905
100020.11718181777
99949.60273420719
100060.86553200978
133047.3428648692
309303.39667247795
625439.3296916634
903846.1929859044
1.0277565665646475e6
1.0612873553684237e6
1.0752923036053027e6
1.0867414522075816e6
1.0974418024192166e6
1.107538167973811e6
1.117057911928328e6
1.1260136831364234e6
1.134408639410606e6
1.1422352079169294e6
1.1494801701570288e6
1.1561099967806407e6
1.1621146793387868e6
1.1673757061124907e6
1.1720714635361931e6
1.1754223843004138e6
1.179682835099494e6
1.1771832002605e6
1.1936603694435894e6
100000.00000000541
99999.9999999847
100000.00000004101
99999.9999998868
100000.00000030751
99999.99999915992
100000.00000229011
99999.99999375071
100000.00001705227
99999.999953453
100000.00012709685
99999.9996528234
100000.00094875105
99999.9974060425
100000.00709575995
99999.98057874708
100000.05318775319
99999.8542483919
100000.39965911048
99998.90343292383
100003.01012280799
99991.7462259086
100022.31029182329
99948.35215372995
99904.02785551103
126246.17622869514
287092.29191908246
595796.5160505283
883265.102754761
1.0188403000439715e6
1.056412664438496e6
1.070846018851261e6
1.0821163365233827e6
1.0925661632525972e6
1.1023943189475785e6
1.1116340458635997e6
1.12030149165554e6
1.128403652040404e6
1.1359372801144363e6
1.142893368803795e6
1.1492438622876443e6
1.1549813541438275e6
1.1599982750544546e6
1.164462914507523e6
1.167637658443476e6
1.1717224123681788e6
1.1690433491138266e6
1.1863126014420704e6
100000.00000000479
99999.99999998666
100000.00000003619
99999.99999990029
100000.00000027221
99999.99999925357
100000.00000204501
99999.99999439217
100000.0000153842
99999.9999577665
100000.00011601935
99999.99968103852
100000.00087761448
99999.99758310858
100000.00666229348
99999.98161644566
100000.05078058061
99999.85957325205
100000.3887800118
99998.9223772852
100002.9899779637
99991.71015539402
100022.59455828216
99949.23149156514
99828.6826858018
119724.9946524391
263177.8515124162
561785.8128707107
858314.4528736336
1.007745948197513e6
1.0506485629502204e6
1.0657552183594408e6
1.076834545620674e6
1.0869840018274703e6
1.0964856841983686e6
1.1053806693844472e6
1.1136880378560505e6
1.1214180248361318e6
1.128571287646259e6
1.135142905148475e6
1.1411104981974761e6
1.1464701811387246e6
1.1511266480313628e6
1.1552416063978327e6
1.1581226763931364e6
1.1619289378434648e6
1.1589603768551308e6
1.177186891132456e6
100000.00000000371
99999.99999998872
100000.00000003031
99999.99999991641
100000.00000022876
99999.99999937067
100000.00000172897
99999.999995244
100000.00001309013
99999.99996393835
100000.00009943415
99999.99972554966
100000.00075832871
99999.99790224567
100000.0058101581
99999.9838864465
100000.04475038865
99999.8755383223
100000.34668580296
99999.0327978684
100002.70216631287
99992.45336967583
100020.70319998381
99953.64008582136
99821.00729013451
113852.59792821547
238295.0570917768
523648.47492053016
828494.7353902865
993992.3976063221
1.0438503227250604e6
1.059998340049907e6
1.0708937490400265e6
1.0806917546248743e6
1.0898032931361224e6
1.0982809974594286e6
1.1061460111279532e6
1.113410600759053e6
1.12007820816197e6
1.126147218914257e6
1.1316006746463957e6
1.1364392342349335e6
1.1405819760573227e6
1.1441898989273403e6
1.1466215169477325e6
1.1500152513499511e6
1.1466180244245795e6
1.1660263427243158e6
100000.0000000031
99999.99999999107
100000.00000002379
99999.99999993398
100000.0000001807
99999.99999950234
100000.00000136785
99999.99999623456
100000.00001037045
99999.9999714083
100000.00007890284
99999.99978201574
100000.00060292831
99999.99833021533
100000.00463072909
99999.98713898176
100000.03577509895
99999.9003197639
100000.27822855576
99999.22197415255
100002.17936806982
99993.89531629001
100016.79763708694
99962.21450138885
99854.67517960264
108924.67121136899
213287.39492192946
481811.0184135644
793324.0320536508
976980.221190175
1.0358136745475247e6
1.0535455615069515e6
1.0642954467272141e6
1.0736913030664055e6
1.0823433496520317e6
1.0903225414423184e6
1.0976507619030818e6
1.1043399478909643e6
1.1103935237581693e6
1.1158100033351863e6
1.120574099559971e6
1.124687112074919e6
1.128077460488731e6
1.1309029964082616e6
1.1325711364681043e6
1.135223346974437e6
1.1310404205114115e6
1.151809544955668e6
100000.0000000022
99999.99999999336
100000.00000001743
99999.99999995154
100000.00000013218
99999.99999963671
100000.00000099547
99999.99999726724
100000.0000075041
99999.99997937561
100000.00005672712
99999.99984382377
100000.00043040767
99999.99881249409
100000.00328040465
99999.99092585864
100000.02513752377
99999.93025155945
100000.19386504011
99999.46015053592
100001.50597038436
99995.79871239017
100011.50770828202
99974.29521216152
99900.84788552194
105122.18899624608
189079.61622280127
436932.56748855615
752397.8669661956
955980.7109368503
1.0262487086648538e6
1.046351335512295e6
1.057045438866143e6
1.0659930720125465e6
1.0741120241249984e6
1.081503813039583e6
1.0881895721586973e6
1.0941774631446835e6
1.0994667454814797e6
1.1040515981752707e6
1.107914086958183e6
1.1110535538672926e6
1.1134086192110968e6
1.1151436430233016e6
1.1157258586715383e6
1.1173477977653837e6
1.1121008770873803e6
1.1346589829652258e6
100000.0000000014
99999.99999999547
100000.0000000117
99999.99999996777
100000.00000008749
99999.9999997618
100000.00000064715
99999.99999823813
100000.00000479244
99999.99998695997
100000.00003547977
99999.99990344832
100000.00026278419
99999.9992846276
100000.00194795136
99999.99469403076
100000.01445847754
99999.9605825204
100000.1075241966
99999.70649306155
100000.80161692365
99997.8140449151
100005.8234763835
99987.88691679832
99938.20620519923
102481.23384389392
166626.08839619055
389942.81265787734
705471.2778238289
930138.2213264705
1.0147462542233587e6
1.0383415862780184e6
1.0491518722990751e6
1.0576170906672417e6
1.0651276441017922e6
1.071837266541958e6
1.0777648408594527e6
1.0829091491355607e6
1.0872571871348487e6
1.0907873346408512e6
1.0934618496617018e6
1.0952539557118763e6
1.0960695579125937e6
1.0960237781604582e6
1.094577289092043e6
1.0939005093218645e6
1.0859735704130891e6
1.109751849539499e6
100000.00000000077
99999.99999999747
100000.00000000685
99999.99999998133
100000.00000004937
99999.99999986737
100000.00000035313
99999.9999990592
100000.00000249676
99999.9999933889
100000.00001744743
99999.99995411899
100000.00012013142
99999.9996870428
100000.00081035939
99999.99791706521
100000.00530557786
99999.9866390854
100000.03315580325
99999.91931506417
100000.19099369032
99999.56847239626
100000.84167793073
100000.22186257516
99958.59294016103
100887.68111102756
146828.86779419743
342059.5844083559
652562.2801454142
898496.3485317026
1.0007381539826568e6
1.0293944342270248e6
1.0406215300422322e6
1.048594051603365e6
1.0554238513583408e6
1.0613549045102252e6
1.0664040665476122e6
1.0705544153391747e6
1.0737717449447417e6
1.0760076697676524e6
1.0771932261823816e6
1.0772640973495382e6
1.0761031952949767e6
1.073812285358652e6
1.069922391336272e6
1.066726926548148e6
1.056170674532143e6
1.082809717695173e6
100000.00000000044
99999.99999999884
100000.00000000309
99999.99999999159
100000.00000002078
99999.99999994709
100000.00000013206
99999.99999967415
100000.00000078537
99999.99999815763
100000.00000413902
99999.99999131363
100000.00001601441
99999.99997899139
99999.99999021497
100000.00022557846
99999.99879383658
100000.00504909067
99999.98097905776
100000.0675813282
99999.76855177978
100000.77403889266
99997.43607239047
100008.75867422685
99965.81534017526
100106.99109789802
130423.95846901204
294772.3291904326
594069.904272029
860061.0300643529
983455.3741992407
1.0193117639177068e6
1.0314527082804242e6
1.0389649799255087e6
1.0450511906584395e6
1.050110494933197e6
1.054161228242845e6
1.057162007429955e6
1.0590417057591602e6
1.0596978874937415e6
1.0589820547568065e6
1.056707994551173e6
1.0525619615435768e6
1.046301125189863e6
1.0369046808296174e6
1.0257775173626589e6
1.0034299733737151e6
1.0216167315459482e6
100000.00000000016
99999.99999999968
100000.0000000005
99999.99999999875
100000.0000000017
99999.99999999913
99999.9999999887
100000.00000006695
99999.99999970692
100000.00000111734
99999.99999601574
100000.00001361116
99999.99995480721
100000.00014700858
99999.99952899503
100000.00149164605
99999.99531851322
100000.0145884817
99999.95479514012
100000.13944984939
99999.57132136705
100001.31440114442
99995.97773080856
100012.18575146614
99968.9949194532
99848.03559330794
117847.98854609116
249776.92312214806
530890.7325820522
813913.4805805089
961892.4824421308
1.0077787583918646e6
1.0216229272963501e6
1.028779508405169e6
1.034079105703101e6
1.0381851955703058e6
1.0411300229821036e6
1.0428418840192579e6
1.0432002404663734e6
1.0420342943042176e6
1.0391034845256918e6
1.0340979946588761e6
1.0265612479870883e6
1.0161222373071925e6
1.0017981235349337e6
985322.8486907259
957532.962078416
980784.5739479569
99999.99999999994
100000.00000000019
99999.9999999992
100000.0000000024
99999.99999999133
100000.00000002663
99999.9999999156
100000.00000026084
99999.99999919573
100000.00000245849
99999.99999252333
100000.00002262759
99999.99993178593
100000.00020494852
99999.99938595225
100000.00183542747
99999.99452446628
100000.0163088891
99999.95148543327
100000.14417835965
99999.57181781209
100001.270936916
99996.23450601067
100010.93385610853
99975.221136634
99842.10620172955
109122.16856669459
208849.65028867984
464507.66208599455
759380.7525493728
934793.0588908457
994308.3813068726
1.0110679625328986e6
1.0180902412767842e6
1.0225940669911917e6
1.0256854433500695e6
1.0274379413833456e6
1.0277453906915663e6
1.0264215807853085e6
1.0231970867577912e6
1.017665923622824e6
1.0092234912758729e6
996844.7665606781
978950.9034339177
951840.6789584347
910583.5165338852
831508.1454813514
702298.5037788311
99999.99999999987
100000.00000000036
99999.99999999843
100000.00000000384
99999.99999998779
100000.00000003519
99999.99999989547
100000.00000030544
99999.99999910564
100000.00000260938
99999.99999239875
100000.00002209864
99999.99993586315
100000.00018582425
99999.9994624817
100000.00155234808
99999.99552387922
100000.01288639918
99999.9629599203
100000.10629346981
99999.69548851476
100000.87062055744
99997.52161618047
100006.86331647231
99985.70507498429
99904.62933479334
103812.4496134958
173652.49269889673
397017.7693834754
696261.9003358625
900679.769280104
978170.6278770599
999648.4114687286
1.0069424266985424e6
1.0106963443536934e6
1.01274293070302e6
1.0132530076471085e6
1.0120904741439637e6
1.0090076725642334e6
1.0036321076251523e6
995399.7254704748
983451.7271217721
966355.1658614979
941881.2691575415
905468.6200183076
851151.1440065377
759333.8149943845
621934.9425318567
99999.99999999971
100000.00000000017
99999.99999999857
100000.00000000387
99999.99999998852
100000.00000003212
99999.99999990787
100000.0000002604
99999.99999926232
100000.000002083
99999.99999413076
100000.0000164893
99999.99995380844
100000.00012895689
99999.99964135299
100000.00099304208
99999.99726457827
100000.00748891359
99999.97964811568
100000.05480856598
99999.85407430145
100000.38270619347
99999.01967723331
100002.34455322726
99996.89268432434
99951.88149509675
101116.97966871259
145468.55102609383
331063.58986660297
625091.0606097667
857963.8588795295
958314.034765271
987099.2078389295
995355.6878976387
998491.1834999837
999505.6834556636
998766.7565324192
996134.9860383474
991312.6432967489
983851.3073225293
973080.7867623583
958004.9844364019
937041.7685787426
907862.3246795284
866212.1026132521
807136.8515659746
717482.8627310221
595815.5872245037
99999.99999999987
100000.00000000035
99999.99999999885
100000.00000000292
99999.99999999131
100000.00000002359
99999.99999993423
100000.00000017956
99999.99999950886
100000.00000133409
99999.99999639492
100000.00000966937
99999.99997428717
100000.00006762997
99999.99982456176
100000.00044688808
99999.9988895844
100000.00266219956
99999.99396266251
100000.01241543863
99999.97946177925
100000.01234751448
100000.11042026646
99999.19375998563
100004.48495310478
99972.35364989353
100080.20673002722
124894.15522977352
269634.33206880366
547388.6474044229
805171.5098838417
933299.9102657485
972958.4370852303
983295.3955282712
986075.4591323766
986125.1380960554
984177.4128596085
980137.3567613572
973681.4212302376
964320.8743074377
951343.7273678259
933730.4129624421
909949.8632988312
877892.4928239456
834076.2381503052
774938.2160233749
692435.9223479333
588208.1698284784
99999.99999999997
100000.00000000007
99999.99999999926
100000.00000000183
99999.99999999435
100000.00000001436
99999.9999999611
100000.00000010051
99999.99999973866
100000.00000066706
99999.99999832531
100000.00000409866
99999.99999031043
100000.0000217014
99999.9999557134
100000.00007395848
99999.99994491787
99999.99969238628
100000.00226505805
99999.98938943126
100000.04269626124
99999.84088861986
100000.5666107249
99998.03590284476
100006.68732065303
99981.2334517105
99856.25787619555
111589.49792432324
215719.7402251139
465815.6153118528
741305.7208686839
901285.1502450898
956472.682228228
970629.3196864444
973519.0262172205
972741.5616322794
969672.1680795945
964332.8770435309
956409.5911296296
945409.0915466559
930632.6824008678
911119.7214904968
885506.9883774605
852036.712770354
808072.3779559315
751246.6163683377
676959.6058132389
587640.3073611204
99999.99999999988
100000.00000000001
99999.99999999956
100000.00000000128
99999.9999999969
100000.00000000693
99999.9999999819
100000.00000004249
99999.99999990048
100000.0000002172
99999.99999956723
100000.00000069545
99999.9999995554
99999.99999685952
100000.0000215496
99999.99990260499
100000.00038005493
99999.99862581288
100000.00473962934
99999.98417554545
100000.05157524478
99999.83506014358
100000.51932643384
99998.38816325035
100004.8379584097
99989.6656414846
99893.22323529856
104267.4591270127
171828.81622313234
384131.250051991
666322.8107477493
860109.8652359702
936482.1111939666
957063.1927745236
960838.9327096685
959471.0244084827
955411.7442891616
948918.0618733114
939727.8136176361
927375.948031516
911216.2914082124
890395.179820566