# vtk DataFile Version 2.0
JuliaCFD
ASCII
DATASET UNSTRUCTURED_GRID

POINTS 32898 float
0.0 0.0 -0.05
0.0125 0.0 -0.05
0.025 0.0 -0.05
0.0375 0.0 -0.05
0.05 0.0 -0.05
0.0625 0.0 -0.05
0.075 0.0 -0.05
0.0875 0.0 -0.05
0.1 0.0 -0.05
0.1125 0.0 -0.05
0.125 0.0 -0.05
0.1375 0.0 -0.05
0.15 0.0 -0.05
0.1625 0.0 -0.05
0.175 0.0 -0.05
0.1875 0.0 -0.05
0.2 0.0 -0.05
0.2125 0.0 -0.05
0.225 0.0 -0.05
0.2375 0.0 -0.05
0.25 0.0 -0.05
0.2625 0.0 -0.05
0.275 0.0 -0.05
0.2875 0.0 -0.05
0.3 0.0 -0.05
0.3125 0.0 -0.05
0.325 0.0 -0.05
0.3375 0.0 -0.05
0.35 0.0 -0.05
0.3625 0.0 -0.05
0.375 0.0 -0.05
0.3875 0.0 -0.05
0.4 0.0 -0.05
0.4125 0.0 -0.05
0.425 0.0 -0.05
0.4375 0.0 -0.05
0.45 0.0 -0.05
0.4625 0.0 -0.05
0.475 0.0 -0.05
0.4875 0.0 -0.05
0.5 0.0 -0.05
0.5125 0.0 -0.05
0.525 0.0 -0.05
0.5375 0.0 -0.05
0.55 0.0 -0.05
0.5625 0.0 -0.05
0.575 0.0 -0.05
0.5875 0.0 -0.05
0.6 0.0 -0.05
0.0 0.0125 -0.05
0.0125 0.0125 -0.05
0.025 0.0125 -0.05
0.0375 0.0125 -0.05
0.05 0.0125 -0.05
0.0625 0.0125 -0.05
0.075 0.0125 -0.05
0.0875 0.0125 -0.05
0.1 0.0125 -0.05
0.1125 0.0125 -0.05
0.125 0.0125 -0.05
0.1375 0.0125 -0.05
0.15 0.0125 -0.05
0.1625 0.0125 -0.05
0.175 0.0125 -0.05
0.1875 0.0125 -0.05
0.2 0.0125 -0.05
0.2125 0.0125 -0.05
0.225 0.0125 -0.05
0.2375 0.0125 -0.05
0.25 0.0125 -0.05
0.2625 0.0125 -0.05
0.275 0.0125 -0.05
0.2875 0.0125 -0.05
0.3 0.0125 -0.05
0.3125 0.0125 -0.05
0.325 0.0125 -0.05
0.3375 0.0125 -0.05
0.35 0.0125 -0.05
0.3625 0.0125 -0.05
0.375 0.0125 -0.05
0.3875 0.0125 -0.05
0.4 0.0125 -0.05
0.4125 0.0125 -0.05
0.425 0.0125 -0.05
0.4375 0.0125 -0.05
0.45 0.0125 -0.05
0.4625 0.0125 -0.05
0.475 0.0125 -0.05
0.4875 0.0125 -0.05
0.5 0.0125 -0.05
0.5125 0.0125 -0.05
0.525 0.0125 -0.05
0.5375 0.0125 -0.05
0.55 0.0125 -0.05
0.5625 0.0125 -0.05
0.575 0.0125 -0.05
0.5875 0.0125 -0.05
0.6 0.0125 -0.05
0.0 0.025 -0.05
0.0125 0.025 -0.05
0.025 0.025 -0.05
0.0375 0.025 -0.05
0.05 0.025 -0.05
0.0625 0.025 -0.05
0.075 0.025 -0.05
0.0875 0.025 -0.05
0.1 0.025 -0.05
0.1125 0.025 -0.05
0.125 0.025 -0.05
0.1375 0.025 -0.05
0.15 0.025 -0.05
0.1625 0.025 -0.05
0.175 0.025 -0.05
0.1875 0.025 -0.05
0.2 0.025 -0.05
0.2125 0.025 -0.05
0.225 0.025 -0.05
0.2375 0.025 -0.05
0.25 0.025 -0.05
0.2625 0.025 -0.05
0.275 0.025 -0.05
0.2875 0.025 -0.05
0.3 0.025 -0.05
0.3125 0.025 -0.05
0.325 0.025 -0.05
0.3375 0.025 -0.05
0.35 0.025 -0.05
0.3625 0.025 -0.05
0.375 0.025 -0.05
0.3875 0.025 -0.05
0.4 0.025 -0.05
0.4125 0.025 -0.05
0.425 0.025 -0.05
0.4375 0.025 -0.05
0.45 0.025 -0.05
0.4625 0.025 -0.05
0.475 0.025 -0.05
0.4875 0.025 -0.05
0.5 0.025 -0.05
0.5125 0.025 -0.05
0.525 0.025 -0.05
0.5375 0.025 -0.05
0.55 0.025 -0.05
0.5625 0.025 -0.05
0.575 0.025 -0.05
0.5875 0.025 -0.05
0.6 0.025 -0.05
0.0 0.0375 -0.05
0.0125 0.0375 -0.05
0.025 0.0375 -0.05
0.0375 0.0375 -0.05
0.05 0.0375 -0.05
0.0625 0.0375 -0.05
0.075 0.0375 -0.05
0.0875 0.0375 -0.05
0.1 0.0375 -0.05
0.1125 0.0375 -0.05
0.125 0.0375 -0.05
0.1375 0.0375 -0.05
0.15 0.0375 -0.05
0.1625 0.0375 -0.05
0.175 0.0375 -0.05
0.1875 0.0375 -0.05
0.2 0.0375 -0.05
0.2125 0.0375 -0.05
0.225 0.0375 -0.05
0.2375 0.0375 -0.05
0.25 0.0375 -0.05
0.2625 0.0375 -0.05
0.275 0.0375 -0.05
0.2875 0.0375 -0.05
0.3 0.0375 -0.05
0.3125 0.0375 -0.05
0.325 0.0375 -0.05
0.3375 0.0375 -0.05
0.35 0.0375 -0.05
0.3625 0.0375 -0.05
0.375 0.0375 -0.05
0.3875 0.0375 -0.05
0.4 0.0375 -0.05
0.4125 0.0375 -0.05
0.425 0.0375 -0.05
0.4375 0.0375 -0.05
0.45 0.0375 -0.05
0.4625 0.0375 -0.05
0.475 0.0375 -0.05
0.4875 0.0375 -0.05
0.5 0.0375 -0.05
0.5125 0.0375 -0.05
0.525 0.0375 -0.05
0.5375 0.0375 -0.05
0.55 0.0375 -0.05
0.5625 0.0375 -0.05
0.575 0.0375 -0.05
0.5875 0.0375 -0.05
0.6 0.0375 -0.05
0.0 0.05 -0.05
0.0125 0.05 -0.05
0.025 0.05 -0.05
0.0375 0.05 -0.05
0.05 0.05 -0.05
0.0625 0.05 -0.05
0.075 0.05 -0.05
0.0875 0.05 -0.05
0.1 0.05 -0.05
0.1125 0.05 -0.05
0.125 0.05 -0.05
0.1375 0.05 -0.05
0.15 0.05 -0.05
0.1625 0.05 -0.05
0.175 0.05 -0.05
0.1875 0.05 -0.05
0.2 0.05 -0.05
0.2125 0.05 -0.05
0.225 0.05 -0.05
0.2375 0.05 -0.05
0.25 0.05 -0.05
0.2625 0.05 -0.05
0.275 0.05 -0.05
0.2875 0.05 -0.05
0.3 0.05 -0.05
0.3125 0.05 -0.05
0.325 0.05 -0.05
0.3375 0.05 -0.05
0.35 0.05 -0.05
0.3625 0.05 -0.05
0.375 0.05 -0.05
0.3875 0.05 -0.05
0.4 0.05 -0.05
0.4125 0.05 -0.05
0.425 0.05 -0.05
0.4375 0.05 -0.05
0.45 0.05 -0.05
0.4625 0.05 -0.05
0.475 0.05 -0.05
0.4875 0.05 -0.05
0.5 0.05 -0.05
0.5125 0.05 -0.05
0.525 0.05 -0.05
0.5375 0.05 -0.05
0.55 0.05 -0.05
0.5625 0.05 -0.05
0.575 0.05 -0.05
0.5875 0.05 -0.05
0.6 0.05 -0.05
0.0 0.0625 -0.05
0.0125 0.0625 -0.05
0.025 0.0625 -0.05
0.0375 0.0625 -0.05
0.05 0.0625 -0.05
0.0625 0.0625 -0.05
0.075 0.0625 -0.05
0.0875 0.0625 -0.05
0.1 0.0625 -0.05
0.1125 0.0625 -0.05
0.125 0.0625 -0.05
0.1375 0.0625 -0.05
0.15 0.0625 -0.05
0.1625 0.0625 -0.05
0.175 0.0625 -0.05
0.1875 0.0625 -0.05
0.2 0.0625 -0.05
0.2125 0.0625 -0.05
0.225 0.0625 -0.05
0.2375 0.0625 -0.05
0.25 0.0625 -0.05
0.2625 0.0625 -0.05
0.275 0.0625 -0.05
0.2875 0.0625 -0.05
0.3 0.0625 -0.05
0.3125 0.0625 -0.05
0.325 0.0625 -0.05
0.3375 0.0625 -0.05
0.35 0.0625 -0.05
0.3625 0.0625 -0.05
0.375 0.0625 -0.05
0.3875 0.0625 -0.05
0.4 0.0625 -0.05
0.4125 0.0625 -0.05
0.425 0.0625 -0.05
0.4375 0.0625 -0.05
0.45 0.0625 -0.05
0.4625 0.0625 -0.05
0.475 0.0625 -0.05
0.4875 0.0625 -0.05
0.5 0.0625 -0.05
0.5125 0.0625 -0.05
0.525 0.0625 -0.05
0.5375 0.0625 -0.05
0.55 0.0625 -0.05
0.5625 0.0625 -0.05
0.575 0.0625 -0.05
0.5875 0.0625 -0.05
0.6 0.0625 -0.05
0.0 0.075 -0.05
0.0125 0.075 -0.05
0.025 0.075 -0.05
0.0375 0.075 -0.05
0.05 0.075 -0.05
0.0625 0.075 -0.05
0.075 0.075 -0.05
0.0875 0.075 -0.05
0.1 0.075 -0.05
0.1125 0.075 -0.05
0.125 0.075 -0.05
0.1375 0.075 -0.05
0.15 0.075 -0.05
0.1625 0.075 -0.05
0.175 0.075 -0.05
0.1875 0.075 -0.05
0.2 0.075 -0.05
0.2125 0.075 -0.05
0.225 0.075 -0.05
0.2375 0.075 -0.05
0.25 0.075 -0.05
0.2625 0.075 -0.05
0.275 0.075 -0.05
0.2875 0.075 -0.05
0.3 0.075 -0.05
0.3125 0.075 -0.05
0.325 0.075 -0.05
0.3375 0.075 -0.05
0.35 0.075 -0.05
0.3625 0.075 -0.05
0.375 0.075 -0.05
0.3875 0.075 -0.05
0.4 0.075 -0.05
0.4125 0.075 -0.05
0.425 0.075 -0.05
0.4375 0.075 -0.05
0.45 0.075 -0.05
0.4625 0.075 -0.05
0.475 0.075 -0.05
0.4875 0.075 -0.05
0.5 0.075 -0.05
0.5125 0.075 -0.05
0.525 0.075 -0.05
0.5375 0.075 -0.05
0.55 0.075 -0.05
0.5625 0.075 -0.05
0.575 0.075 -0.05
0.5875 0.075 -0.05
0.6 0.075 -0.05
0.0 0.0875 -0.05
0.0125 0.0875 -0.05
0.025 0.0875 -0.05
0.0375 0.0875 -0.05
0.05 0.0875 -0.05
0.0625 0.0875 -0.05
0.075 0.0875 -0.05
0.0875 0.0875 -0.05
0.1 0.0875 -0.05
0.1125 0.0875 -0.05
0.125 0.0875 -0.05
0.1375 0.0875 -0.05
0.15 0.0875 -0.05
0.1625 0.0875 -0.05
0.175 0.0875 -0.05
0.1875 0.0875 -0.05
0.2 0.0875 -0.05
0.2125 0.0875 -0.05
0.225 0.0875 -0.05
0.2375 0.0875 -0.05
0.25 0.0875 -0.05
0.2625 0.0875 -0.05
0.275 0.0875 -0.05
0.2875 0.0875 -0.05
0.3 0.0875 -0.05
0.3125 0.0875 -0.05
0.325 0.0875 -0.05
0.3375 0.0875 -0.05
0.35 0.0875 -0.05
0.3625 0.0875 -0.05
0.375 0.0875 -0.05
0.3875 0.0875 -0.05
0.4 0.0875 -0.05
0.4125 0.0875 -0.05
0.425 0.0875 -0.05
0.4375 0.0875 -0.05
0.45 0.0875 -0.05
0.4625 0.0875 -0.05
0.475 0.0875 -0.05
0.4875 0.0875 -0.05
0.5 0.0875 -0.05
0.5125 0.0875 -0.05
0.525 0.0875 -0.05
0.5375 0.0875 -0.05
0.55 0.0875 -0.05
0.5625 0.0875 -0.05
0.575 0.0875 -0.05
0.5875 0.0875 -0.05
0.6 0.0875 -0.05
0.0 0.1 -0.05
0.0125 0.1 -0.05
0.025 0.1 -0.05
0.0375 0.1 -0.05
0.05 0.1 -0.05
0.0625 0.1 -0.05
0.075 0.1 -0.05
0.0875 0.1 -0.05
0.1 0.1 -0.05
0.1125 0.1 -0.05
0.125 0.1 -0.05
0.1375 0.1 -0.05
0.15 0.1 -0.05
0.1625 0.1 -0.05
0.175 0.1 -0.05
0.1875 0.1 -0.05
0.2 0.1 -0.05
0.2125 0.1 -0.05
0.225 0.1 -0.05
0.2375 0.1 -0.05
0.25 0.1 -0.05
0.2625 0.1 -0.05
0.275 0.1 -0.05
0.2875 0.1 -0.05
0.3 0.1 -0.05
0.3125 0.1 -0.05
0.325 0.1 -0.05
0.3375 0.1 -0.05
0.35 0.1 -0.05
0.3625 0.1 -0.05
0.375 0.1 -0.05
0.3875 0.1 -0.05
0.4 0.1 -0.05
0.4125 0.1 -0.05
0.425 0.1 -0.05
0.4375 0.1 -0.05
0.45 0.1 -0.05
0.4625 0.1 -0.05
0.475 0.1 -0.05
0.4875 0.1 -0.05
0.5 0.1 -0.05
0.5125 0.1 -0.05
0.525 0.1 -0.05
0.5375 0.1 -0.05
0.55 0.1 -0.05
0.5625 0.1 -0.05
0.575 0.1 -0.05
0.5875 0.1 -0.05
0.6 0.1 -0.05
0.0 0.1125 -0.05
0.0125 0.1125 -0.05
0.025 0.1125 -0.05
0.0375 0.1125 -0.05
0.05 0.1125 -0.05
0.0625 0.1125 -0.05
0.075 0.1125 -0.05
0.0875 0.1125 -0.05
0.1 0.1125 -0.05
0.1125 0.1125 -0.05
0.125 0.1125 -0.05
0.1375 0.1125 -0.05
0.15 0.1125 -0.05
0.1625 0.1125 -0.05
0.175 0.1125 -0.05
0.1875 0.1125 -0.05
0.2 0.1125 -0.05
0.2125 0.1125 -0.05
0.225 0.1125 -0.05
0.2375 0.1125 -0.05
0.25 0.1125 -0.05
0.2625 0.1125 -0.05
0.275 0.1125 -0.05
0.2875 0.1125 -0.05
0.3 0.1125 -0.05
0.3125 0.1125 -0.05
0.325 0.1125 -0.05
0.3375 0.1125 -0.05
0.35 0.1125 -0.05
0.3625 0.1125 -0.05
0.375 0.1125 -0.05
0.3875 0.1125 -0.05
0.4 0.1125 -0.05
0.4125 0.1125 -0.05
0.425 0.1125 -0.05
0.4375 0.1125 -0.05
0.45 0.1125 -0.05
0.4625 0.1125 -0.05
0.475 0.1125 -0.05
0.4875 0.1125 -0.05
0.5 0.1125 -0.05
0.5125 0.1125 -0.05
0.525 0.1125 -0.05
0.5375 0.1125 -0.05
0.55 0.1125 -0.05
0.5625 0.1125 -0.05
0.575 0.1125 -0.05
0.5875 0.1125 -0.05
0.6 0.1125 -0.05
0.0 0.125 -0.05
0.0125 0.125 -0.05
0.025 0.125 -0.05
0.0375 0.125 -0.05
0.05 0.125 -0.05
0.0625 0.125 -0.05
0.075 0.125 -0.05
0.0875 0.125 -0.05
0.1 0.125 -0.05
0.1125 0.125 -0.05
0.125 0.125 -0.05
0.1375 0.125 -0.05
0.15 0.125 -0.05
0.1625 0.125 -0.05
0.175 0.125 -0.05
0.1875 0.125 -0.05
0.2 0.125 -0.05
0.2125 0.125 -0.05
0.225 0.125 -0.05
0.2375 0.125 -0.05
0.25 0.125 -0.05
0.2625 0.125 -0.05
0.275 0.125 -0.05
0.2875 0.125 -0.05
0.3 0.125 -0.05
0.3125 0.125 -0.05
0.325 0.125 -0.05
0.3375 0.125 -0.05
0.35 0.125 -0.05
0.3625 0.125 -0.05
0.375 0.125 -0.05
0.3875 0.125 -0.05
0.4 0.125 -0.05
0.4125 0.125 -0.05
0.425 0.125 -0.05
0.4375 0.125 -0.05
0.45 0.125 -0.05
0.4625 0.125 -0.05
0.475 0.125 -0.05
0.4875 0.125 -0.05
0.5 0.125 -0.05
0.5125 0.125 -0.05
0.525 0.125 -0.05
0.5375 0.125 -0.05
0.55 0.125 -0.05
0.5625 0.125 -0.05
0.575 0.125 -0.05
0.5875 0.125 -0.05
0.6 0.125 -0.05
0.0 0.1375 -0.05
0.0125 0.1375 -0.05
0.025 0.1375 -0.05
0.0375 0.1375 -0.05
0.05 0.1375 -0.05
0.0625 0.1375 -0.05
0.075 0.1375 -0.05
0.0875 0.1375 -0.05
[...]
CELL_DATA 16128
SCALARS P float 1
LOOKUP_TABLE default
100000.00000000687
99999.99999997998
100000.00000005413
99999.99999984833
100000.00000041885
99999.99999884127
100000.0000031959
99999.99999119664
100000.00002420126
99999.99993358478
100000.00018192272
99999.99950259997
100000.00135739146
99999.99630280826
100000.01005047465
99999.97273372792
100000.07381759437
99999.8005882744
100000.53745939657
99998.55501947532
100003.87359396079
99989.6681235744
100027.01806882743
99939.65773716576
99930.31672539609
128787.50772466885
297737.8307737877
614006.2925621847
902517.2794986207
1.033714014328978e6
1.0677777501502992e6
1.0816082651813936e6
1.0933803290033098e6
1.104619651832281e6
1.115342426801558e6
1.1255208705866574e6
1.1351360950711775e6
1.1441711245025927e6
1.1526039009486563e6
1.1604124852030107e6
1.1675531689967837e6
1.1740227611667097e6
1.1796760083653086e6
1.1847657679778326e6
1.1883529185308034e6
1.1930134322484732e6
1.190910537856809e6
1.2050307876533037e6
100000.00000000668
99999.99999998041
100000.00000005317
99999.99999985138
100000.00000041102
99999.99999886204
100000.0000031411
99999.9999913407
100000.00002382416
99999.999934563
100000.00017940716
99999.99950900684
100000.00134124997
99999.9963429838
100000.00995182018
99999.97297236524
100000.07325019606
99999.80190883881
100000.53448176009
99998.5613344028
100003.8621737724
99989.67792671853
100027.06882527245
99939.5561792388
99918.0796117417
128113.4482195813
296097.4211678045
613743.3099976166
906336.9038665846
1.0410280202590722e6
1.0766549362991902e6
1.0911763346276288e6
1.103339802884798e6
1.114843959117649e6
1.1257814323006915e6
1.136160426808575e6
1.1459769303210876e6
1.155217866213231e6
1.1638593578378232e6
1.1718743842673968e6
1.1792121992308318e6
1.1858607016034483e6
1.1916654066622392e6
1.1968676612692461e6
1.2005198381309968e6
1.2051984527070716e6
1.2030039337251117e6
1.2173261602941318e6
100000.00000000627
99999.99999998146
100000.00000005054
99999.99999985824
100000.00000039238
99999.99999891187
100000.00000300852
99999.99999169147
100000.00002290303
99999.99993696327
100000.00017320957
99999.99952483678
100000.00130135067
99999.99644188058
100000.0097119911
99999.97353672942
100000.07197961
99999.80457121367
100000.52961763548
99998.5674587719
100003.86660722161
99989.60432446275
100027.42286217632
99938.91801674891
99892.01205577218
126469.75060545607
290434.24270313187
605552.8715690498
899491.609118769
1.0365761913271495e6
1.0729569036115385e6
1.08742178596877e6
1.099418747306778e6
1.110745608791896e6
1.1214979963466506e6
1.131682313895487e6
1.1412947501413773e6
1.1503240116635624e6
1.1587491501549904e6
1.1665466492846943e6
1.1736706583675253e6
1.1801129447842492e6
1.1857289698655494e6
1.1907568406527075e6
1.1942817748118783e6
1.198829916807912e6
1.1965734627038224e6
1.2110953448439185e6
100000.00000000585
99999.99999998286
100000.00000004692
99999.99999986861
100000.00000036447
99999.99999898717
100000.00000280695
99999.9999922278
100000.00002148295
99999.99994069806
100000.00016346046
99999.99955006053
100000.00123677294
99999.99660511238
100000.00930592947
99999.97452631996
100000.06963337716
99999.80992205557
100000.51811480543
99998.58979735142
100003.83176587889
99989.62513772021
100027.55236145783
99938.8363031167
99859.8141969
123974.2150084809
281600.9167783358
593150.4502351261
890461.3618699785
1.0326471964722595e6
1.0709924179482178e6
1.0857927823358926e6
1.097845362554413e6
1.1091794455019964e6
1.1199211324242756e6
1.1300876593400706e6
1.1396824267401374e6
1.1486993049798727e6
1.1571212218009492e6
1.164927147917428e6
1.1720734862927035e6
1.1785506502093154e6
1.1842175906792365e6
1.1892966877745085e6
1.192896421304969e6
1.197476059107359e6
1.1952421232991228e6
1.2101431780051568e6
100000.00000000534
99999.99999998472
100000.00000004181
99999.999999882
100000.00000032794
99999.99999908602
100000.00000254023
99999.99999294465
100000.00001956603
99999.99994579956
100000.0001499606
99999.99958555684
100000.00114412508
99999.99684486265
100000.008691788
99999.97608032472
100000.06576018172
99999.81939231511
100000.49553496773
99998.64179375181
100003.7180385095
99989.8530481566
100027.16051023071
99939.68416661231
99833.35018152445
120820.98648028246
269847.34767979005
576253.258099082
877883.1022536174
1.0269739613056836e6
1.067945233370338e6
1.0830443865185294e6
1.0950142686182607e6
1.1062227859753736e6
1.1168272460199133e6
1.1268499881351257e6
1.1362980794024172e6
1.1451687105108376e6
1.1534480006204494e6
1.1611175022244558e6
1.1681368733013265e6
1.1744965311475773e6
1.180062545144638e6
1.1850434654962553e6
1.1885826671308572e6
1.193071644146451e6
1.1907709785608044e6
1.2060875777741813e6
100000.00000000458
99999.99999998674
100000.00000003605
99999.99999989808
100000.00000028418
99999.99999920558
100000.00000221509
99999.9999938272
100000.00001717963
99999.9999522297
100000.00013270421
99999.99963166696
100000.0010215121
99999.99716913387
100000.00783949764
99999.97830448192
100000.06000417573
99999.83414170383
100000.4581919155
99998.73493413068
100003.4901895331
99990.394842249
100025.93501057402
99942.0668763761
99822.18013761826
117254.48855809022
255538.95947128042
554929.7555157364
861586.5807736132
1.0196369843543501e6
1.0642415594374381e6
1.0798026897325988e6
1.0916831356095802e6
1.1027439157709402e6
1.113188951718928e6
1.1230466942660175e6
1.1323284935143485e6
1.1410356775910002e6
1.1491584358497683e6
1.1566816838744984e6
1.163569018484466e6
1.1698110250094489e6
1.1752811644853717e6
1.180172668249764e6
1.1836643668148122e6
1.1880785160354811e6
1.185710533302959e6
1.2015642903124122e6
100000.00000000374
99999.9999999892
100000.00000002973
99999.9999999159
100000.00000023496
99999.99999934074
100000.00000184363
99999.99999484388
100000.00001440046
99999.99995980607
100000.00011210216
99999.99968753361
100000.0008704752
99999.9975761216
100000.00674679749
99999.98122636975
100000.0522265349
99999.85473750715
100000.40397843228
99998.87663518579
100003.12298445436
99991.33448729334
100023.6055014941
99946.70594261678
99830.51470573236
113545.17474455986
239134.8145758909
529286.879175679
841207.3760202695
1.0102726605739982e6
1.0596952381635602e6
1.0759239856189245e6
1.087689978858663e6
1.0985510644699805e6
1.108781045903432e6
1.1184153372563403e6
1.127469151305014e6
1.1359478185425191e6
1.1438457594622418e6
1.1511516784902015e6
1.1578338616871496e6
1.1638841399036315e6
1.169185133099996e6
1.1739169404385942e6
1.1772976471007336e6
1.181586494135446e6
1.179097595915948e6
1.1955987324938907e6
100000.00000000284
99999.99999999165
100000.00000002302
99999.9999999345
100000.00000018305
99999.99999948451
100000.00000144576
99999.999995944
100000.0000113646
99999.99996817173
100000.00008908495
99999.99975075916
100000.00069709813
99999.99805069597
100000.00545028903
99999.984760924
100000.04261269314
99999.88082047297
100000.33341430884
99999.06692221033
100002.61183549532
99992.69878603997
100020.05219267502
99954.14885482095
99855.9299159029
109965.54182431563
221191.17125800328
499524.17691451043
816373.8635004271
998497.298660409
1.0541897804694253e6
1.0714000102135744e6
1.0830500932314328e6
1.093666884183649e6
1.1036305160567113e6
1.1129859313023065e6
1.121752025295856e6
1.129938062721029e6
1.1375429042843229e6
1.1445595847377116e6
1.1509619888410468e6
1.1567446696882779e6
1.16180132263924e6
1.1663020268540925e6
1.1695068617750844e6
1.1736206355847486e6
1.1709525325964957e6
1.1882474323671802e6
100000.00000000192
99999.99999999402
100000.00000001639
99999.99999995295
100000.00000013164
99999.99999962805
100000.00000104522
99999.99999705944
100000.00000826003
99999.99997680708
100000.00006508468
99999.99981741079
100000.00051213735
99999.99856357777
100000.00402921854
99999.98869517248
100000.03173003576
99999.91089554397
100000.25038385307
99999.2958886882
100001.98137096633
99994.42901028997
100015.39811972348
99964.44647208137
99890.43961998938
106761.69925797683
202358.2361741766
465962.5522012513
786707.4834968206
983828.5810172324
1.0475516871962318e6
1.0661948782830674e6
1.077749341955796e6
1.0880751353888803e6
1.0977143448466985e6
1.1067261551543088e6
1.115132745884131e6
1.1229467086983249e6
1.130170912086484e6
1.1368025918214282e6
1.142821437732066e6
1.1482256595795923e6
1.1529213598248446e6
1.1570721977102347e6
1.159983408986547e6
1.163819227075891e6
1.1608621360359096e6
1.1791162500641607e6
100000.00000000128
99999.9999999961
100000.0000000103
99999.99999997001
100000.00000008401
99999.99999976222
100000.00000066953
99999.9999981131
100000.00000530561
99999.99998508852
100000.00004187638
99999.99988244419
100000.00032991717
99999.99907414684
100000.00259857932
99999.99270422106
100000.0204942815
99999.9423891837
100000.1620948725
99999.54342994558
100001.28737706297
99996.3716705798
100010.04925968044
99976.90415765456
99923.81539382937
104122.84036785783
183367.76042778697
429082.3741119268
751863.1975978198
965681.9619760939
1.0395478263763699e6
1.060267199631669e6
1.0717825007672315e6
1.0817717142012906e6
1.091023234777567e6
1.0996188748506166e6
1.1075836003315805e6
1.114932136111679e6
1.121670234398743e6
1.1277985499509824e6
1.133302323996681e6
1.1381844555964624e6
1.1423655816873163e6
1.1460088407151243e6
1.1484702037321012e6
1.1518944185263468e6
1.1485092719738416e6
1.1679478399007886e6
100000.00000000051
99999.99999999798
100000.00000000533
99999.99999998469
100000.0000000431
99999.99999987746
100000.000000344
99999.9999990315
100000.00000271715
99999.9999923871
100000.00002129206
99999.99994051734
100000.00016600543
99999.99953703748
100000.00129053308
99999.99640322126
100000.0100254245
99999.97204448297
100000.07800900201
99999.78209256612
100000.60937166864
99998.29720187689
100004.65372222953
99990.04102136164
99947.90497034257
102154.07209484026
165005.2253951102
389559.62521737744
711584.0577910686
943364.8916033518
1.0298570298084217e6
1.0535571787718795e6
1.0651465175509483e6
1.0747579008827403e6
1.083553207643784e6
1.091651408534432e6
1.0990796739553385e6
1.105852552882878e6
1.1119758828860319e6
1.1174505558156683e6
1.1222636167444582e6
1.1264187357028334e6
1.1298459889355544e6
1.132706276793147e6
1.1344023657530977e6
1.1370844743085213e6
1.1329164870445288e6
1.1537188130333768e6
99999.99999999999
99999.99999999932
100000.00000000122
99999.99999999587
100000.0000000111
99999.99999996822
100000.00000008785
99999.99999975592
100000.00000066758
99999.99999818711
100000.0000048712
99999.99998703814
100000.00003410854
99999.99991133786
100000.00022720892
99999.99942755765
100000.00141206187
99999.99661142411
100000.0078280455
99999.98292145556
100000.03372694476
99999.94828862145
99999.96844814823
100001.85804636251
99959.94834128431
100860.58203018372
148061.28278573017
348293.192706272
665773.8533370637
916086.6785672532
1.0180391165690841e6
1.0459739470187362e6
1.057839610273979e6
1.0670431517642403e6
1.0753102911438947e6
1.0828221685898898e6
1.0896080846479272e6
1.0956790897778624e6
1.10103697573025e6
1.1056784132660371e6
1.1095879513966003e6
1.1127674003559244e6
1.1151576118110083e6
1.1169242195258494e6
1.1175342946927445e6
1.1191848238128119e6
1.113953975440371e6
1.1365517644311779e6
99999.99999999965
100000.00000000048
99999.99999999852
100000.00000000378
99999.99999998912
100000.00000003073
99999.99999991106
100000.0000002558
99999.99999925312
100000.00000219056
99999.9999935355
100000.00001915844
99999.99994301367
100000.00016996264
99999.99949203205
100000.00152044206
99999.99544422157
100000.013660306
99999.95902243031
100000.12295242984
99999.63101946056
100001.10811552739
99996.65644646526
100010.39722090458
99963.11864135784
100151.41985592165
133258.64367285074
306413.93323553604
614585.3311564659
882991.2527313618
1.0034998454596037e6
1.0373759176067385e6
1.0498573707681478e6
1.0586458142070451e6
1.0663126654122304e6
1.073143598050126e6
1.0791711675441796e6
1.0843975777638962e6
1.0888125040664377e6
1.0923969096462924e6
1.0951157804715051e6
1.0969443348433988e6
1.0977909343848294e6
1.0977735197271227e6
1.096352477747431e6
1.0957017717804015e6
1.0877890142140593e6
1.1116120782410726e6
99999.99999999935
100000.00000000092
99999.99999999686
100000.00000000799
99999.99999997656
100000.0000000657
99999.99999981261
100000.0000005327
99999.99999847476
100000.0000043766
99999.9999873954
100000.00003640412
99999.9998945627
100000.00030615245
99999.99910892859
100000.00259923415
99999.99240237637
100000.0222515041
99999.93470943779
100000.19192052112
99999.43486418707
100001.66702107275
99995.07701907495
100014.41753908333
99963.92508997521
99867.26995249825
121156.5739165906
265264.5283535194
558517.0009681598
843223.0267974586
985456.4839922165
1.0275425966630758e6
1.0411860096624345e6
1.0495935744471801e6
1.0565937286484584e6
1.0626477599412594e6
1.0677964499180403e6
1.0720273545928185e6
1.0753091301443286e6
1.0775961234655885e6
1.0788218038445038e6
1.0789244696513882e6
1.0777896088311372e6
1.0755221704792783e6
1.0716544197633034e6
1.0684828341253921e6
1.0579398087930405e6
1.0846302341603315e6
99999.99999999953
100000.00000000114
99999.99999999646
100000.00000000972
99999.9999999721
100000.00000007737
99999.99999978088
100000.00000061888
99999.99999824293
100000.00000499532
99999.99998575698
100000.00004070165
99999.99988342312
100000.00033462158
99999.99903746005
100000.0027744821
99999.99198635633
100000.02319285157
99999.93274060186
100000.19544819593
99999.4308880889
100001.66037415786
99995.15406506593
100013.90325761691
99968.15072579628
99827.47212442344
112048.22570362962
226338.78384178993
498504.66693346767
796034.7876906109
962911.9933710214
1.0161348643772905e6
1.0317902892506336e6
1.0399219506163298e6
1.046203462219184e6
1.051388515087732e6
1.055538034503299e6
1.0586172123186293e6
1.0605580900381238e6
1.0612608043008314e6
1.06057945132721e6
1.058330266800339e6
1.054202275463351e6
1.0479553880938942e6
1.0385701759205442e6
1.0274537276603685e6
1.0051036545784107e6
1.023333190807577e6
99999.99999999956
100000.00000000128
99999.99999999661
100000.0000000092
99999.9999999738
100000.00000007212
99999.99999979726
100000.00000056758
99999.99999840415
100000.00000449027
99999.99998733775
100000.00003576056
99999.99989883995
100000.00028660061
99999.99918678803
100000.00231085287
99999.99342376555
100000.01874203264
99999.94650714174
100000.15290649893
99999.56225649531
100001.25490342028
99996.40442749741
100010.09128338123
99977.70921191614
99880.40098902173
105883.80243865681
191170.13805819946
435986.98886456824
740942.4256040681
934651.6378555774
1.002641579330444e6
1.0215933759714686e6
1.0296703991563868e6
1.0352099401576224e6
1.0394470355835145e6
1.0424897996337248e6
1.0442772650863887e6
1.044692644178708e6
1.0435675033118732e6
1.0406638416364192e6
1.0356745129742501e6
1.0281457218689551e6
1.0177095528426557e6
1.0033860936587683e6
986913.2558645369
959116.4765655482
982410.8256775785
99999.99999999953
100000.00000000096
99999.9999999973
100000.00000000758
99999.99999997905
100000.00000005723
99999.99999984095
100000.00000043989
99999.9999987807
100000.00000337938
99999.99999062528
100000.0000260113
99999.99992781086
100000.00020034824
99999.99944404552
100000.00154220566
99999.99572434435
100000.01184444016
99999.96722366274
100000.09057431243
99999.75014737307
100000.68753017593
99998.11844934989
100004.992805244
99990.16124766703
99935.64780636935
102262.67795973206
161160.85588213606
372919.1069007447
677923.5140789733
899284.1485219438
986313.5527867714
1.010444476854279e6
1.0188731426626729e6
1.0236966450258779e6
1.026929562461747e6
1.0287795130178707e6
1.0291593477030838e6
1.0278873234303195e6
1.0246966910741826e6
1.0191836749387208e6
1.0107458997333061e6
998360.0344144307
980447.999877514
953306.5911420796
911998.6159686944
832814.9748855565
703425.2951329565
99999.99999999977
100000.00000000064
99999.99999999799
100000.00000000531
99999.99999998526
100000.00000003928
99999.99999989262
100000.00000029059
99999.99999921198
100000.00000212954
99999.99999425394
100000.00001545578
99999.99995857381
100000.00011052814
99999.99970677521
100000.00077230684
99999.99798457508
100000.00519658304
99999.986814131
100000.03272808089
99999.92131059125
100000.18004024269
99999.62413401254
100000.58969280751
100001.07026962802
99964.49603380894
100524.54998291993
137350.86627302397
311704.5641661328
607641.3487790881
855357.4530319143
966093.5958953254
998070.5744830497
1.0075435024913156e6
1.0117579475608777e6
1.0139671327010725e6
1.0145755296466949e6
1.0134818571006764e6
1.0104449269790907e6
1.0050952378504976e6
996870.7718275929
984914.2935490864
967793.6064313427
943279.3056598576
906806.2332523154
852401.2524594819
760436.1910479253
622831.9847981463
99999.99999999956
100000.00000000029
99999.99999999879
100000.00000000326
99999.99999999102
100000.00000002286
99999.99999993898
100000.00000015888
99999.99999958588
100000.00000106606
99999.99999728217
100000.0000068248
99999.99998319165
100000.00004026036
99999.99990745977
100000.00019887461
99999.99962371592
100000.0005098396
100000.00021713667
99999.99439590034
100000.03093396722
99999.86664589099
100000.51818382635
99998.0834818488
100007.05859985312
99974.78819324561
99928.20260812838
120157.52420655395
255017.46022348513
531650.2470597997
801577.5401033601
940561.9339308925
984007.9132616388
995647.4326809437
999488.063262299
1.000706175183834e6
1.0000697504631653e6
997503.3925626252
992720.7174219633
985276.8894742914
974503.6718734222
959406.1982466697
938402.7153098718
909163.5609478898
867430.8443857762
808245.8827270793
718432.4860722458
596567.2677325532
99999.99999999994
100000.00000000022
99999.99999999937
100000.00000000153
99999.99999999534
100000.00000001043
99999.9999999729
100000.00000006454
99999.99999984782
100000.00000034025
99999.99999929014
100000.00000128137
99999.99999845792
99999.99999835376
100000.00002202886
99999.99988726298
100000.00046571734
99999.99825374615
100000.00619632726
99999.97877881816
100000.07091763489
99999.7671844736
100000.7543056695
99997.58058113465
100007.60203986551
99981.37837965217
99850.79946430052
109184.93619742041
205500.23501888363
452511.3679913813
737141.2480516826
907929.7789760315
967510.2556510401
983061.6879221018
986963.5199748373
987294.7414138993
985460.2870117819
981483.3564375847
975061.0253254011
965709.7134214445
952719.5939499979
935072.3339354339
911237.3425905169
879104.6377659906
835190.0584050234
775928.9629329335
693265.8329825068
588851.5933134226
99999.99999999987
99999.99999999985
99999.99999999974
100000.00000000055
99999.9999999982
100000.00000000275
99999.99999999326
100000.00000000944
99999.99999999403
99999.99999995422
100000.00000030026
99999.99999866929
100000.00000510296
99999.99998182185
100000.00006185654
99999.99979595953
100000.00065789677
99999.99791562447
100000.00651092926
99999.97990231532
100000.06139672502
99999.81419106275
100000.55732146138
99998.3459349374
100004.7419565706
99990.34183814607
99910.7243651295
103250.6510977569
165343.0823801611
373740.3693504902
662162.3200380309
866133.2916738023
947438.0217474253
969510.4684841486
974217.1056786773
973865.5173758878
970933.6584370092
965657.771075056
957762.7357438059
946763.7300990011
931964.8778522082
912407.0612880035
886727.9230647066
853170.0084705602
809096.0813288582
752139.0195183075
677692.5654682842
588196.745991341
100000.0
100000.0
99999.99999999983
99999.99999999997
99999.99999999965
99999.99999999903
100000.00000000292
99999.99999998586
100000.00000005118
99999.99999982092
100000.0000005927
99999.99999809226
100000.00000599156
99999.99998152872
100000.00005603246
99999.99983243628
100000.00049439068
99999.99856061094
100000.004132901
99999.9883129327
100000.03246936605
99999.91172898485
100000.23320825852
99999.4103755208
100001.32864741822
99999.12648839867
99959.09981297627
100708.89199255012
135778.63979247582
299521.2910026285
578120.0201858679
813099.2817985335
922151.9878605752
954475.4661005351
961200.6630282949
960519.1957044256
956648.0692266052
950223.5831337393
941057.6999102068
928700.4576755201
912509.9311411517
891634.5326737538
864929.5683937845