# vtk DataFile Version 2.0
JuliaCFD
ASCII
DATASET UNSTRUCTURED_GRID

POINTS 32898 float
0.0 0.0 -0.05
0.0125 0.0 -0.05
0.025 0.0 -0.05
0.0375 0.0 -0.05
0.05 0.0 -0.05
0.0625 0.0 -0.05
0.075 0.0 -0.05
0.0875 0.0 -0.05
0.1 0.0 -0.05
0.1125 0.0 -0.05
0.125 0.0 -0.05
0.1375 0.0 -0.05
0.15 0.0 -0.05
0.1625 0.0 -0.05
0.175 0.0 -0.05
0.1875 0.0 -0.05
0.2 0.0 -0.05
0.2125 0.0 -0.05
0.225 0.0 -0.05
0.2375 0.0 -0.05
0.25 0.0 -0.05
0.2625 0.0 -0.05
0.275 0.0 -0.05
0.2875 0.0 -0.05
0.3 0.0 -0.05
0.3125 0.0 -0.05
0.325 0.0 -0.05
0.3375 0.0 -0.05
0.35 0.0 -0.05
0.3625 0.0 -0.05
0.375 0.0 -0.05
0.3875 0.0 -0.05
0.4 0.0 -0.05
0.4125 0.0 -0.05
0.425 0.0 -0.05
0.4375 0.0 -0.05
0.45 0.0 -0.05
0.4625 0.0 -0.05
0.475 0.0 -0.05
0.4875 0.0 -0.05
0.5 0.0 -0.05
0.5125 0.0 -0.05
0.525 0.0 -0.05
0.5375 0.0 -0.05
0.55 0.0 -0.05
0.5625 0.0 -0.05
0.575 0.0 -0.05
0.5875 0.0 -0.05
0.6 0.0 -0.05
0.0 0.0125 -0.05
0.0125 0.0125 -0.05
0.025 0.0125 -0.05
0.0375 0.0125 -0.05
0.05 0.0125 -0.05
0.0625 0.0125 -0.05
0.075 0.0125 -0.05
0.0875 0.0125 -0.05
0.1 0.0125 -0.05
0.1125 0.0125 -0.05
0.125 0.0125 -0.05
0.1375 0.0125 -0.05
0.15 0.0125 -0.05
0.1625 0.0125 -0.05
0.175 0.0125 -0.05
0.1875 0.0125 -0.05
0.2 0.0125 -0.05
0.2125 0.0125 -0.05
0.225 0.0125 -0.05
0.2375 0.0125 -0.05
0.25 0.0125 -0.05
0.2625 0.0125 -0.05
0.275 0.0125 -0.05
0.2875 0.0125 -0.05
0.3 0.0125 -0.05
0.3125 0.0125 -0.05
0.325 0.0125 -0.05
0.3375 0.0125 -0.05
0.35 0.0125 -0.05
0.3625 0.0125 -0.05
0.375 0.0125 -0.05
0.3875 0.0125 -0.05
0.4 0.0125 -0.05
0.4125 0.0125 -0.05
0.425 0.0125 -0.05
0.4375 0.0125 -0.05
0.45 0.0125 -0.05
0.4625 0.0125 -0.05
0.475 0.0125 -0.05
0.4875 0.0125 -0.05
0.5 0.0125 -0.05
0.5125 0.0125 -0.05
0.525 0.0125 -0.05
0.5375 0.0125 -0.05
0.55 0.0125 -0.05
0.5625 0.0125 -0.05
0.575 0.0125 -0.05
0.5875 0.0125 -0.05
0.6 0.0125 -0.05
0.0 0.025 -0.05
0.0125 0.025 -0.05
0.025 0.025 -0.05
0.0375 0.025 -0.05
0.05 0.025 -0.05
0.0625 0.025 -0.05
0.075 0.025 -0.05
0.0875 0.025 -0.05
0.1 0.025 -0.05
0.1125 0.025 -0.05
0.125 0.025 -0.05
0.1375 0.025 -0.05
0.15 0.025 -0.05
0.1625 0.025 -0.05
0.175 0.025 -0.05
0.1875 0.025 -0.05
0.2 0.025 -0.05
0.2125 0.025 -0.05
0.225 0.025 -0.05
0.2375 0.025 -0.05
0.25 0.025 -0.05
0.2625 0.025 -0.05
0.275 0.025 -0.05
0.2875 0.025 -0.05
0.3 0.025 -0.05
0.3125 0.025 -0.05
0.325 0.025 -0.05
0.3375 0.025 -0.05
0.35 0.025 -0.05
0.3625 0.025 -0.05
0.375 0.025 -0.05
0.3875 0.025 -0.05
0.4 0.025 -0.05
0.4125 0.025 -0.05
0.425 0.025 -0.05
0.4375 0.025 -0.05
0.45 0.025 -0.05
0.4625 0.025 -0.05
0.475 0.025 -0.05
0.4875 0.025 -0.05
0.5 0.025 -0.05
0.5125 0.025 -0.05
0.525 0.025 -0.05
0.5375 0.025 -0.05
0.55 0.025 -0.05
0.5625 0.025 -0.05
0.575 0.025 -0.05
0.5875 0.025 -0.05
0.6 0.025 -0.05
0.0 0.0375 -0.05
0.0125 0.0375 -0.05
0.025 0.0375 -0.05
0.0375 0.0375 -0.05
0.05 0.0375 -0.05
0.0625 0.0375 -0.05
0.075 0.0375 -0.05
0.0875 0.0375 -0.05
0.1 0.0375 -0.05
0.1125 0.0375 -0.05
0.125 0.0375 -0.05
0.1375 0.0375 -0.05
0.15 0.0375 -0.05
0.1625 0.0375 -0.05
0.175 0.0375 -0.05
0.1875 0.0375 -0.05
0.2 0.0375 -0.05
0.2125 0.0375 -0.05
0.225 0.0375 -0.05
0.2375 0.0375 -0.05
0.25 0.0375 -0.05
0.2625 0.0375 -0.05
0.275 0.0375 -0.05
0.2875 0.0375 -0.05
0.3 0.0375 -0.05
0.3125 0.0375 -0.05
0.325 0.0375 -0.05
0.3375 0.0375 -0.05
0.35 0.0375 -0.05
0.3625 0.0375 -0.05
0.375 0.0375 -0.05
0.3875 0.0375 -0.05
0.4 0.0375 -0.05
0.4125 0.0375 -0.05
0.425 0.0375 -0.05
0.4375 0.0375 -0.05
0.45 0.0375 -0.05
0.4625 0.0375 -0.05
0.475 0.0375 -0.05
0.4875 0.0375 -0.05
0.5 0.0375 -0.05
0.5125 0.0375 -0.05
0.525 0.0375 -0.05
0.5375 0.0375 -0.05
0.55 0.0375 -0.05
0.5625 0.0375 -0.05
0.575 0.0375 -0.05
0.5875 0.0375 -0.05
0.6 0.0375 -0.05
0.0 0.05 -0.05
0.0125 0.05 -0.05
0.025 0.05 -0.05
0.0375 0.05 -0.05
0.05 0.05 -0.05
0.0625 0.05 -0.05
0.075 0.05 -0.05
0.0875 0.05 -0.05
0.1 0.05 -0.05
0.1125 0.05 -0.05
0.125 0.05 -0.05
0.1375 0.05 -0.05
0.15 0.05 -0.05
0.1625 0.05 -0.05
0.175 0.05 -0.05
0.1875 0.05 -0.05
0.2 0.05 -0.05
0.2125 0.05 -0.05
0.225 0.05 -0.05
0.2375 0.05 -0.05
0.25 0.05 -0.05
0.2625 0.05 -0.05
0.275 0.05 -0.05
0.2875 0.05 -0.05
0.3 0.05 -0.05
0.3125 0.05 -0.05
0.325 0.05 -0.05
0.3375 0.05 -0.05
0.35 0.05 -0.05
0.3625 0.05 -0.05
0.375 0.05 -0.05
0.3875 0.05 -0.05
0.4 0.05 -0.05
0.4125 0.05 -0.05
0.425 0.05 -0.05
0.4375 0.05 -0.05
0.45 0.05 -0.05
0.4625 0.05 -0.05
0.475 0.05 -0.05
0.4875 0.05 -0.05
0.5 0.05 -0.05
0.5125 0.05 -0.05
0.525 0.05 -0.05
0.5375 0.05 -0.05
0.55 0.05 -0.05
0.5625 0.05 -0.05
0.575 0.05 -0.05
0.5875 0.05 -0.05
0.6 0.05 -0.05
0.0 0.0625 -0.05
0.0125 0.0625 -0.05
0.025 0.0625 -0.05
0.0375 0.0625 -0.05
0.05 0.0625 -0.05
0.0625 0.0625 -0.05
0.075 0.0625 -0.05
0.0875 0.0625 -0.05
0.1 0.0625 -0.05
0.1125 0.0625 -0.05
0.125 0.0625 -0.05
0.1375 0.0625 -0.05
0.15 0.0625 -0.05
0.1625 0.0625 -0.05
0.175 0.0625 -0.05
0.1875 0.0625 -0.05
0.2 0.0625 -0.05
0.2125 0.0625 -0.05
0.225 0.0625 -0.05
0.2375 0.0625 -0.05
0.25 0.0625 -0.05
0.2625 0.0625 -0.05
0.275 0.0625 -0.05
0.2875 0.0625 -0.05
0.3 0.0625 -0.05
0.3125 0.0625 -0.05
0.325 0.0625 -0.05
0.3375 0.0625 -0.05
0.35 0.0625 -0.05
0.3625 0.0625 -0.05
0.375 0.0625 -0.05
0.3875 0.0625 -0.05
0.4 0.0625 -0.05
0.4125 0.0625 -0.05
0.425 0.0625 -0.05
0.4375 0.0625 -0.05
0.45 0.0625 -0.05
0.4625 0.0625 -0.05
0.475 0.0625 -0.05
0.4875 0.0625 -0.05
0.5 0.0625 -0.05
0.5125 0.0625 -0.05
0.525 0.0625 -0.05
0.5375 0.0625 -0.05
0.55 0.0625 -0.05
0.5625 0.0625 -0.05
0.575 0.0625 -0.05
0.5875 0.0625 -0.05
0.6 0.0625 -0.05
0.0 0.075 -0.05
0.0125 0.075 -0.05
0.025 0.075 -0.05
0.0375 0.075 -0.05
0.05 0.075 -0.05
0.0625 0.075 -0.05
0.075 0.075 -0.05
0.0875 0.075 -0.05
0.1 0.075 -0.05
0.1125 0.075 -0.05
0.125 0.075 -0.05
0.1375 0.075 -0.05
0.15 0.075 -0.05
0.1625 0.075 -0.05
0.175 0.075 -0.05
0.1875 0.075 -0.05
0.2 0.075 -0.05
0.2125 0.075 -0.05
0.225 0.075 -0.05
0.2375 0.075 -0.05
0.25 0.075 -0.05
0.2625 0.075 -0.05
0.275 0.075 -0.05
0.2875 0.075 -0.05
0.3 0.075 -0.05
0.3125 0.075 -0.05
0.325 0.075 -0.05
0.3375 0.075 -0.05
0.35 0.075 -0.05
0.3625 0.075 -0.05
0.375 0.075 -0.05
0.3875 0.075 -0.05
0.4 0.075 -0.05
0.4125 0.075 -0.05
0.425 0.075 -0.05
0.4375 0.075 -0.05
0.45 0.075 -0.05
0.4625 0.075 -0.05
0.475 0.075 -0.05
0.4875 0.075 -0.05
0.5 0.075 -0.05
0.5125 0.075 -0.05
0.525 0.075 -0.05
0.5375 0.075 -0.05
0.55 0.075 -0.05
0.5625 0.075 -0.05
0.575 0.075 -0.05
0.5875 0.075 -0.05
0.6 0.075 -0.05
0.0 0.0875 -0.05
0.0125 0.0875 -0.05
0.025 0.0875 -0.05
0.0375 0.0875 -0.05
0.05 0.0875 -0.05
0.0625 0.0875 -0.05
0.075 0.0875 -0.05
0.0875 0.0875 -0.05
0.1 0.0875 -0.05
0.1125 0.0875 -0.05
0.125 0.0875 -0.05
0.1375 0.0875 -0.05
0.15 0.0875 -0.05
0.1625 0.0875 -0.05
0.175 0.0875 -0.05
0.1875 0.0875 -0.05
0.2 0.0875 -0.05
0.2125 0.0875 -0.05
0.225 0.0875 -0.05
0.2375 0.0875 -0.05
0.25 0.0875 -0.05
0.2625 0.0875 -0.05
0.275 0.0875 -0.05
0.2875 0.0875 -0.05
0.3 0.0875 -0.05
0.3125 0.0875 -0.05
0.325 0.0875 -0.05
0.3375 0.0875 -0.05
0.35 0.0875 -0.05
0.3625 0.0875 -0.05
0.375 0.0875 -0.05
0.3875 0.0875 -0.05
0.4 0.0875 -0.05
0.4125 0.0875 -0.05
0.425 0.0875 -0.05
0.4375 0.0875 -0.05
0.45 0.0875 -0.05
0.4625 0.0875 -0.05
0.475 0.0875 -0.05
0.4875 0.0875 -0.05
0.5 0.0875 -0.05
0.5125 0.0875 -0.05
0.525 0.0875 -0.05
0.5375 0.0875 -0.05
0.55 0.0875 -0.05
0.5625 0.0875 -0.05
0.575 0.0875 -0.05
0.5875 0.0875 -0.05
0.6 0.0875 -0.05
0.0 0.1 -0.05
0.0125 0.1 -0.05
0.025 0.1 -0.05
0.0375 0.1 -0.05
0.05 0.1 -0.05
0.0625 0.1 -0.05
0.075 0.1 -0.05
0.0875 0.1 -0.05
0.1 0.1 -0.05
0.1125 0.1 -0.05
0.125 0.1 -0.05
0.1375 0.1 -0.05
0.15 0.1 -0.05
0.1625 0.1 -0.05
0.175 0.1 -0.05
0.1875 0.1 -0.05
0.2 0.1 -0.05
0.2125 0.1 -0.05
0.225 0.1 -0.05
0.2375 0.1 -0.05
0.25 0.1 -0.05
0.2625 0.1 -0.05
0.275 0.1 -0.05
0.2875 0.1 -0.05
0.3 0.1 -0.05
0.3125 0.1 -0.05
0.325 0.1 -0.05
0.3375 0.1 -0.05
0.35 0.1 -0.05
0.3625 0.1 -0.05
0.375 0.1 -0.05
0.3875 0.1 -0.05
0.4 0.1 -0.05
0.4125 0.1 -0.05
0.425 0.1 -0.05
0.4375 0.1 -0.05
0.45 0.1 -0.05
0.4625 0.1 -0.05
0.475 0.1 -0.05
0.4875 0.1 -0.05
0.5 0.1 -0.05
0.5125 0.1 -0.05
0.525 0.1 -0.05
0.5375 0.1 -0.05
0.55 0.1 -0.05
0.5625 0.1 -0.05
0.575 0.1 -0.05
0.5875 0.1 -0.05
0.6 0.1 -0.05
0.0 0.1125 -0.05
0.0125 0.1125 -0.05
0.025 0.1125 -0.05
0.0375 0.1125 -0.05
0.05 0.1125 -0.05
0.0625 0.1125 -0.05
0.075 0.1125 -0.05
0.0875 0.1125 -0.05
0.1 0.1125 -0.05
0.1125 0.1125 -0.05
0.125 0.1125 -0.05
0.1375 0.1125 -0.05
0.15 0.1125 -0.05
0.1625 0.1125 -0.05
0.175 0.1125 -0.05
0.1875 0.1125 -0.05
0.2 0.1125 -0.05
0.2125 0.1125 -0.05
0.225 0.1125 -0.05
0.2375 0.1125 -0.05
0.25 0.1125 -0.05
0.2625 0.1125 -0.05
0.275 0.1125 -0.05
0.2875 0.1125 -0.05
0.3 0.1125 -0.05
0.3125 0.1125 -0.05
0.325 0.1125 -0.05
0.3375 0.1125 -0.05
0.35 0.1125 -0.05
0.3625 0.1125 -0.05
0.375 0.1125 -0.05
0.3875 0.1125 -0.05
0.4 0.1125 -0.05
0.4125 0.1125 -0.05
0.425 0.1125 -0.05
0.4375 0.1125 -0.05
0.45 0.1125 -0.05
0.4625 0.1125 -0.05
0.475 0.1125 -0.05
0.4875 0.1125 -0.05
0.5 0.1125 -0.05
0.5125 0.1125 -0.05
0.525 0.1125 -0.05
0.5375 0.1125 -0.05
0.55 0.1125 -0.05
0.5625 0.1125 -0.05
0.575 0.1125 -0.05
0.5875 0.1125 -0.05
0.6 0.1125 -0.05
0.0 0.125 -0.05
0.0125 0.125 -0.05
0.025 0.125 -0.05
0.0375 0.125 -0.05
0.05 0.125 -0.05
0.0625 0.125 -0.05
0.075 0.125 -0.05
0.0875 0.125 -0.05
0.1 0.125 -0.05
0.1125 0.125 -0.05
0.125 0.125 -0.05
0.1375 0.125 -0.05
0.15 0.125 -0.05
0.1625 0.125 -0.05
0.175 0.125 -0.05
0.1875 0.125 -0.05
0.2 0.125 -0.05
0.2125 0.125 -0.05
0.225 0.125 -0.05
0.2375 0.125 -0.05
0.25 0.125 -0.05
0.2625 0.125 -0.05
0.275 0.125 -0.05
0.2875 0.125 -0.05
0.3 0.125 -0.05
0.3125 0.125 -0.05
0.325 0.125 -0.05
0.3375 0.125 -0.05
0.35 0.125 -0.05
0.3625 0.125 -0.05
0.375 0.125 -0.05
0.3875 0.125 -0.05
0.4 0.125 -0.05
0.4125 0.125 -0.05
0.425 0.125 -0.05
0.4375 0.125 -0.05
0.45 0.125 -0.05
0.4625 0.125 -0.05
0.475 0.125 -0.05
0.4875 0.125 -0.05
0.5 0.125 -0.05
0.5125 0.125 -0.05
0.525 0.125 -0.05
0.5375 0.125 -0.05
0.55 0.125 -0.05
0.5625 0.125 -0.05
0.575 0.125 -0.05
0.5875 0.125 -0.05
0.6 0.125 -0.05
0.0 0.1375 -0.05
0.0125 0.1375 -0.05
0.025 0.1375 -0.05
0.0375 0.1375 -0.05
0.05 0.1375 -0.05
0.0625 0.1375 -0.05
0.075 0.1375 -0.05
0.0875 0.1375 -0.05
[...]
CELL_DATA 16128
SCALARS P float 1
LOOKUP_TABLE default
100000.00000006019
99999.99999983542
100000.00000044522
99999.99999878887
100000.00000328626
99999.99999107614
100000.0000242234
99999.99993424962
100000.00017843413
99999.99951583163
100000.00131352224
99999.99643712307
100000.00966227204
99999.97380210808
100000.07101528649
99999.80754881786
100000.52137190328
99998.58816635338
100003.82018527585
99989.69237840326
100027.29142176831
99939.81767986083
99849.06100737941
123016.18133424793
273263.5908038589
571057.5440647469
857809.6842847563
998676.1654501421
1.0386206127420116e6
1.0535893481585293e6
1.0653582636316223e6
1.0765425726481974e6
1.0873012571939128e6
1.0976206342825957e6
1.1074875010419341e6
1.1168903011359016e6
1.1258143519010677e6
1.1342402379371913e6
1.1421402815200922e6
1.1494852985539844e6
1.1562242378149468e6
1.1623456908896817e6
1.1677007065925337e6
1.172531961988908e6
1.1759165441537711e6
1.1803933434978714e6
1.1782230364903137e6
1.1921897883975056e6
100000.00000005943
99999.99999983731
100000.00000044057
99999.99999880185
100000.00000325263
99999.999991165
100000.00002398937
99999.99993486307
100000.00017682936
99999.99952002167
100000.001302594
99999.99646562422
100000.0095878317
99999.973997122
100000.07050234817
99999.80890223527
100000.51780785994
99998.597405048
100003.79733883677
99989.74225618072
100027.21367133933
99939.90996900863
99843.99827725705
122476.46966140163
271802.7251499128
570622.8018110987
860945.6152314702
1.0051057913614771e6
1.0466137497286341e6
1.0622714630128192e6
1.074422621354715e6
1.0858646312650947e6
1.0968339371373989e6
1.1073535249025817e6
1.1174263700978085e6
1.1270465829757485e6
1.13619974361148e6
1.1448637234868892e6
1.153006216608389e6
1.160591808773851e6
1.1675618823126317e6
1.1738957128058264e6
1.1794345406409134e6
1.1844086667875675e6
1.187885492452628e6
1.1924027129073548e6
1.1901590139354363e6
1.2043308433137746e6
100000.00000005783
99999.9999998418
100000.00000042879
99999.99999883294
100000.00000317002
99999.99999138269
100000.00002341674
99999.99993636251
100000.00017292156
99999.99953014925
100000.0012765316
99999.9965321209
100000.00942001332
99999.97441460374
100000.06948393722
99999.8113181621
100000.512311962
99998.6090869092
100003.77538124169
99989.773306526
100027.19737744416
99940.09187706257
99832.1311950377
121189.10560574963
266994.55668047786
563360.7283472706
854665.0373633191
1.0010018479997658e6
1.0433182840534679e6
1.0589805641887155e6
1.070994716639379e6
1.082279756815206e6
1.0930814388319408e6
1.1034216249244453e6
1.1133029842821062e6
1.1227205234957498e6
1.131661537677382e6
1.1401061691827066e6
1.1480249857556126e6
1.1553858182526212e6
1.1621346313906969e6
1.1682543584340606e6
1.1735959656189675e6
1.178386803236238e6
1.1817270559354704e6
1.1861054385319727e6
1.183793600051131e6
1.198156239007991e6
100000.00000005521
99999.9999998487
100000.00000041044
99999.99999888254
100000.00000303824
99999.99999173348
100000.00002248776
99999.99993881886
100000.00016645338
99999.99954710818
100000.00123228788
99999.99664686978
100000.0091244839
99999.97516936228
100000.06757576294
99999.81608355977
100000.50058659137
99998.63742377811
100003.70832379503
99989.92812514697
100026.840378913
99941.13099805886
99818.6134083133
119234.79103854395
259480.72576601012
552277.9653862568
846162.5349325453
997106.9524465466
1.0414154666977176e6
1.0574698968361246e6
1.0695448765206966e6
1.0808293050900863e6
1.0916095793224808e6
1.101918871360861e6
1.1117664747286825e6
1.121152183724071e6
1.1300670079537325e6
1.1384940538757858e6
1.1464063773022816e6
1.15377340968446e6
1.160542753848453e6
1.1666956252433888e6
1.172086114090528e6
1.176926032492528e6
1.1803384446371666e6
1.1847462756297037e6
1.1824558658433799e6
1.1971921237000113e6
100000.0000000518
99999.99999985835
100000.00000038453
99999.99999895197
100000.00000285152
99999.99999223447
100000.00002114517
99999.99994240738
100000.0001568821
99999.99957257343
100000.00116472463
99999.99682556359
100000.00865352806
99999.97640571448
100000.06434431316
99999.82448848405
100000.47884309395
99998.69333831852
100003.56548001099
99990.28979081193
100025.9358032793
99943.27606020182
99810.59722674158
116763.17823534674
249485.09268511622
537207.5998279674
834386.3550552421
991567.3527314201
1.0385520239035792e6
1.0550108116088638e6
1.0670342382996948e6
1.0782036500270283e6
1.088853235985386e6
1.0990228021415435e6
1.1087247375249707e6
1.1179615557206052e6
1.1267268775101758e6
1.135006312828822e6
1.1427754680077466e6
1.1500058543923758e6
1.1566478901193084e6
1.1626825009639177e6
1.1679704956621663e6
1.1727100528473835e6
1.1760586223378459e6
1.1803727792741493e6
1.1780131282132296e6
1.193159160903537e6
100000.00000004735
99999.99999987065
100000.00000035118
99999.99999904269
100000.00000260612
99999.99999289917
100000.00001934767
99999.99994726517
100000.0001437716
99999.99960791387
100000.00106959231
99999.99708126612
100000.00796736237
99999.97824369732
100000.05943077168
99999.83759537432
100000.44396510303
99998.78589365893
100003.32066669875
99990.93364381172
100024.27296397618
99946.93149791087
99813.4963033681
113962.7103882674
237319.13239211016
518230.36746157776
819192.1425197022
984416.2578693295
1.0350500625291669e6
1.05210003408668e6
1.064071615858898e6
1.075102900364057e6
1.0855973967601308e6
1.0956033187653727e6
1.1051365156157988e6
1.1142027530395193e6
1.122798937647722e6
1.130913918436581e6
1.1385266024944074e6
1.1456112327001048e6
1.1521216055408379e6
1.1580384209325884e6
1.1632293934383765e6
1.1678775584738252e6
1.1711753289821087e6
1.175411498620661e6
1.1729821668064613e6
1.1886588551895847e6
100000.00000004197
99999.99999988567
100000.00000031058
99999.99999915379
100000.00000230318
99999.9999937259
100000.00001709316
99999.9999534112
100000.00012702226
99999.99965354029
100000.00094536653
99999.99741930775
100000.00704806169
99999.98074197747
100000.05264686867
99999.85599984843
100000.39408679327
99998.92090098823
100002.95582920687
99991.91579675658
100021.680522762
99952.54416533081
99829.2690955213
111041.16650353964
223370.20487339905
495468.1965365735
800302.0220085098
975350.0861408367
1.0307528575715132e6
1.048626408422146e6
1.0605370321500367e6
1.0713862902265924e6
1.0816770742807672e6
1.091468262801796e6
1.1007787568925691e6
1.1096172283509343e6
1.1179837355719344e6
1.125870415388552e6
1.13325970506575e6
1.1401289971125922e6
1.1464361586679132e6
1.152162642773969e6
1.1571847134948068e6
1.1616722923884466e6
1.16485650823972e6
1.168964184390549e6
1.1664124561540952e6
1.182729101842259e6
100000.00000003572
99999.99999990257
100000.0000002639
99999.99999928205
100000.00000195135
99999.99999469194
100000.00001444103
99999.9999606932
100000.00010702766
99999.99970844678
100000.00079457999
99999.9978334223
100000.00591073486
99999.98386546811
100000.04406926865
99999.87955237956
100000.32942833364
99999.09835442722
100002.46909557766
99993.24746626844
100018.1068999219
99960.38877286164
99855.71537196357
108207.29232055639
208101.70020180478
469118.84010999143
777434.7860224742
964044.8271195738
1.0255513014338291e6
1.0445792119820219e6
1.0564441223181633e6
1.067075339464353e6
1.0771183713208435e6
1.0866471583870298e6
1.0956835832419114e6
1.104238928723832e6
1.1123162561195511e6
1.1199110196571373e6
1.1270094232009393e6
1.133592517417602e6
1.1396230730592299e6
1.1450846471755747e6
1.1498638347953856e6
1.1541203627649485e6
1.157126812336633e6
1.1610561928940543e6
1.158324151752994e6
1.1754246375872225e6
100000.00000002903
99999.99999992103
100000.00000021336
99999.99999942168
100000.00000156666
99999.99999575263
100000.00001151554
99999.99996876619
100000.00008473943
99999.99977000874
100000.0006244621
99999.99830373863
100000.0046098761
99999.98746518945
100000.034103713
99999.90715318982
100000.25295326569
99999.31032576591
100001.8814816279
99994.8738141059
100013.68608289566
99970.3505062181
99887.22015120716
105649.90169634907
192048.76959425522
439476.9604382626
750309.2801070542
950101.1832058355
1.0192908679959694e6
1.039926990937388e6
1.0517859319189957e6
1.0621645473487168e6
1.0719126042487689e6
1.081126221491187e6
1.0898302555877196e6
1.0980379373346027e6
1.1057546849507252e6
1.1129787286372546e6
1.1196996509217285e6
1.1259020318519222e6
1.1315537168581993e6
1.1366411959285636e6
1.141062621848979e6
1.1449708416734645e6
1.1476831097310202e6
1.1513316920575432e6
1.148309621070331e6
1.1663566443491632e6
100000.00000002205
99999.99999993996
100000.0000001616
99999.99999956448
100000.00000117229
99999.99999684298
100000.00000849908
99999.99997711646
100000.00006160849
99999.99983413202
100000.00044656917
99999.99879763785
100000.00323753187
99999.9912814926
100000.0234822137
99999.93674010411
100000.17046550557
99999.54049895766
100001.23877726017
99996.66688146908
100008.76438522487
99981.77016174156
99916.87254763418
103516.02086355911
175807.25480312246
406961.2810287244
718675.183791978
933042.4107313011
1.011768223284468e6
1.0346322677986039e6
1.0465618922857929e6
1.0566577167985954e6
1.066061769647044e6
1.0749036629743006e6
1.0832114713998686e6
1.0909993369644363e6
1.0982738407215571e6
1.1050347951351516e6
1.111274068769398e6
1.116978993977709e6
1.1221222202652227e6
1.1266940962932764e6
1.130606335300496e6
1.1340105734243891e6
1.1362746688557563e6
1.1395085833384125e6
1.136056733614836e6
1.1552715953358707e6
100000.0000000158
99999.99999995793
100000.0000001123
99999.99999970115
100000.00000079488
99999.9999978876
100000.00000560757
99999.99998512806
100000.0000393915
99999.99989579627
100000.00027525528
99999.9992740465
100000.00191131076
99999.99497740078
100000.01317085253
99999.96554201085
100000.08991723551
99999.76604558427
100000.60651507278
99998.43883756554
100003.86914944997
99993.434333866
99939.19850629909
101891.69197799028
160011.64804756414
372140.00689426216
682354.0191654123
912311.821916058
1.0027102562963312e6
1.0286414776550904e6
1.0407726833539723e6
1.0505631101503263e6
1.0595726997542214e6
1.0679823932071894e6
1.0758242364623856e6
1.0831117358459614e6
1.0898505850966508e6
1.0960397788106664e6
1.1016706912972517e6
1.1067302441538721e6
1.1111921950962606e6
1.115046759576939e6
1.1182144106703382e6
1.1208429260704094e6
1.1223483889857407e6
1.1248401641326246e6
1.120601077253869e6
1.14115982846792e6
100000.00000001007
99999.99999997398
100000.00000006825
99999.99999982274
100000.00000045996
99999.99999881187
100000.00000305478
99999.999992188
100000.00001985268
99999.99994992504
100000.00012515175
99999.99969074296
100000.00075322334
99999.99819986755
100000.00419256369
99999.99059110708
100000.01992991172
99999.9618889917
100000.05770566725
99999.97710027407
99999.61158567503
100003.77310783137
99952.30144747735
100790.50781235541
145298.80608067563
335749.60356840794
641292.3083494635
887281.6583806666
991751.6203337674
1.0218748588695065e6
1.0344188160364667e6
1.0438948229849997e6
1.052459723747809e6
1.060373844797877e6
1.0676750645327095e6
1.0743742353772074e6
1.0804732304402206e6
1.0859666642655386e6
1.0908412779673613e6
1.0950791199138768e6
1.0986508097409643e6
1.1015437676478692e6
1.1036871757118953e6
1.1052348187541398e6
1.1056662348167703e6
1.1071310627185134e6
1.1018190622714988e6
1.1241446300301307e6
100000.00000000543
99999.9999999872
100000.00000003239
99999.99999992143
100000.00000018944
99999.99999955548
100000.00000101242
99999.99999780013
100000.0000044203
99999.99999239223
100000.00000819829
100000.00001310559
99999.99986385524
100000.00065605037
99999.99740169736
100000.00938955786
99999.96782212153
100000.10653920031
99999.6555813282
100001.09531884009
99996.53829918
100011.25489728995
99958.31237376407
100155.06884131429
132255.40688143126
298700.7253641857
595624.8553914692
857277.9805372002
978409.9696638241
1.0142116116759786e6
1.0274970909112226e6
1.0366726986000517e6
1.0447456623106656e6
1.0520996488618932e6
1.0587823470553784e6
1.064799442031225e6
1.0701447191837318e6
1.074802566407926e6
1.0787470179812291e6
1.0819438337113296e6
1.0843437319579637e6
1.0859056121934766e6
1.0865306695075606e6
1.0863200657080992e6
1.0847333211350522e6
1.083921015154841e6
1.0759368401487158e6
1.0994563000316322e6
100000.00000000147
99999.99999999686
100000.00000000582
99999.99999999334
99999.99999999444
100000.00000008459
99999.99999957846
100000.00000168582
99999.99999389489
100000.00002089454
99999.99993104368
100000.00022188661
99999.99929910518
100000.00218309667
99999.99327432015
100000.0205407528
99999.93770619456
100000.18784080556
99999.43621698412
100001.68597595963
99994.97221745302
100014.8705748797
99961.83182397978
99874.29584434378
121350.84783147724
262064.19025806608
545743.4400395444
821627.9734477705
962062.0417435558
1.0054693864341854e6
1.0199949923793325e6
1.0289217828228088e6
1.0364628357572204e6
1.043193648878093e6
1.0491797353023721e6
1.054419166056296e6
1.0588926354094343e6
1.0625674574616598e6
1.065396033204758e6
1.0673168110141119e6
1.068249833768927e6
1.0681176799978628e6
1.0667911453025711e6
1.0643616135691642e6
1.0603517436523463e6
1.0570375951912333e6
1.0464327112617948e6
1.0727814798823404e6
99999.99999999929
100000.00000000338
99999.99999998898
100000.0000000382
99999.99999987571
100000.0000003969
99999.99999875796
100000.00000383463
99999.99998829384
100000.00003541495
99999.99989364216
100000.00031746842
99999.9990572085
100000.00278779877
99999.99178656195
100000.02412383283
99999.92933078254
100000.20656418907
99999.39733567706
100001.75546986765
99994.90066805945
100014.52489185985
99967.2710334064
99814.28698366221
112864.77678977839
227029.72144894517
492362.1410577123
779735.2863376045
941925.8189864461
995376.3886860134
1.0118816471170392e6
1.0206706226345935e6
1.0276534067138401e6
1.033703068512185e6
1.0389179654261931e6
1.0432866585106093e6
1.0467705590473067e6
1.0493100929202228e6
1.050820207807496e6
1.0511863623775137e6
1.0502480638656616e6
1.0478075665038554e6
1.0435390936841342e6
1.0371896806144412e6
1.027732302682991e6
1.0165605220646657e6
994253.1329826742
1.0122066529173813e6
99999.999999998
100000.00000000658
99999.99999998062
100000.00000005857
99999.99999982491
100000.00000051956
99999.99999846869
100000.00000449017
99999.99998689283
100000.00003811061
99999.99988957432
100000.00031896705
99999.99908122502
100000.00263982954
99999.99243261885
100000.02164730727
99999.9381948197
100000.17614605108
99999.49881463221
100001.42351509813
99995.97185031696
100011.11336087556
99976.57008454514
99853.72901430441
106828.65406113982
194831.0375650721
436566.36349849415
731186.3661673813
917057.3111122205
983534.7676441584
1.0030935639382614e6
1.0119477752825321e6
1.018369003693843e6
1.0236893931830898e6
1.0280672767623302e6
1.0314822472792872e6
1.0338712204272874e6
1.0351395448052252e6
1.0351526581825403e6
1.0337279184144394e6
1.0306135167125497e6
1.025487681843962e6
1.0178820828097246e6
1.0074136778134614e6
993087.4801358022
976619.6303376432
948903.8419377246
971941.7210671984
99999.99999999756
100000.00000000728
99999.99999997897
100000.00000006097
99999.99999982488
100000.00000050197
99999.9999985672
100000.0000040747
99999.99998844878
100000.00003264188
99999.99990804399
100000.00025825817
99999.9992769047
100000.00201826688
99999.99438489319
100000.01556914303
99999.95698668683
100000.11837053964
99999.67565323782
100000.88420978739
99997.60985340977
100006.2310902069
99988.39093128983
99910.53685708928
103007.7295657188
166632.3144432048
379829.52071430866
675885.9961460048
886375.0777635485
969375.6873565235
993512.8446603435
1.0027754116948018e6
1.0086688088349712e6
1.0132274365740644e6
1.0167164306416162e6
1.0191113078906385e6
1.0203205066701912e6
1.0202050532258351e6
1.0185653912746554e6
1.0151201938929654e6
1.0094530653941021e6
1.0009506569400971e6
988582.089087889
970768.6380071205
943823.6382158966
902857.0166320084
824399.1812861804
696217.3913170645
99999.99999999756
100000.0000000065
99999.99999998174
100000.00000005173
99999.99999985579
100000.00000040168
99999.999998886
100000.00000307686
99999.99999153861
100000.00002316134
99999.99993691665
100000.00017086553
99999.99954008599
100000.00122906602
99999.99674303984
100000.00854399095
99999.97786314086
100000.05646057455
99999.85893929756
100000.3424059621
99999.20702414766
100001.61241048394
99999.41433047819
99949.00963468327
100945.32702727613
143374.61603758065
323979.21097142407
614212.008079239
848730.350451587
952110.5685650246
982935.4590798967
993158.8587279312
998615.9699987288
1.0024033540439946e6
1.0049712949189321e6
1.0063044927007422e6
1.0062834873383812e6
1.0047222753332425e6
1.0013567009612545e6
995803.3940467525
987489.2306228402
975550.112453763
958552.4598054957
934275.265034498
898181.7622841303
844350.6366588918
753363.6914198428
617141.7410824499
99999.99999999811
100000.00000000493
99999.99999998626
100000.00000003731
99999.99999989898
100000.00000027228
99999.99999927152
100000.000001935
99999.99999490274
100000.00001329159
99999.99996576314
100000.00008684279
99999.99978404779
100000.00052280247
99999.99878196997
100000.00267340888
99999.99472239678
100000.00816674327
99999.99692570376
99999.94924759993
100000.3220207622
99998.51904428023
100006.5360451929
99967.41556063574
100071.06684281412
125595.00226415887
271094.8834857314
547165.7548952628
803041.6526329536
930689.4512660757
971027.2717595212
983070.2992507678
988271.4795778053
991310.4465091878
992949.6385233612
993209.8833473586
991948.940893406
988944.102426536
983874.559085737
976280.5083729845
965484.2243949444
950486.202675853
929705.8241183655
900823.2806184164
859606.6226903818
801132.3901501904
712365.6261728278
591825.7703816592
99999.99999999875
100000.00000000314
99999.99999999121
100000.00000002279
99999.99999994044
100000.00000015233
99999.9999996147
100000.0000009558
99999.99999768427
100000.00000542193
99999.9999879293
100000.00002469544
99999.99995743485
100000.00004166327
100000.00010910688
99999.99903772157
100000.00460317434
99999.98156813635
100000.06769577987
99999.763759848
100000.79753516965
99997.36337388083
100008.5730465128
99976.98669498111
99842.71324843743
113264.96270313024
223324.7328276458
476478.40014318016
748504.4468574862
903785.0442232431
957265.8821822077
972424.0161396009
977684.7234805421
980042.962013653
980773.68927023
979980.1487683627
977513.1426331473
973124.0730468738
966456.3922167042
957007.8028702728
944059.0089093407
926587.2840432951
903062.6734092562
871382.129007416
828079.2724608677
769606.8393905455
687990.3044489372
584811.5148616807
99999.99999999943
100000.00000000182
99999.99999999555
100000.0000000114
99999.99999997241
100000.0000000633
99999.9999998596
100000.00000028491
99999.99999950889
100000.00000050126
100000.00000107074
99999.99999000927
100000.00004766053
99999.99981132385
100000.00068257682
99999.99765977607
100000.00773907934
99999.97507033151
100000.07869328654
99999.75563768225
100000.74841455993
99997.73760500077
100006.62014649471
99986.11695203427
99864.01790941536
105733.77627647563
182621.86552713372
404623.9568819218
684868.3323303831
869830.1999752279
940868.5428030962
961039.3980722401
966879.4393789426
968688.5308359459
968562.4961753556
966762.8663070103
963159.6528788649
957492.4397111961
949390.9074138418
938344.5310095398
923646.256250869
904331.2278999098
879035.3993624826
846003.5830730996
802607.1945394262
746482.6623397616
673063.0869713787
584722.6156261847
99999.99999999958
100000.00000000077
99999.9999999982
100000.00000000378
99999.99999999256
100000.00000001026
99999.9999999983
99999.99999992896
100000.00000040523
99999.99999830316
100000.00000626534
99999.99997841165
100000.00007111974
99999.99977313029
100000.00070587108
99999.99784857247
100000.00644021717
99999.98103985869
100000.05491956323
99999.84356164755
100000.43748095869
99998.80571158695
100003.05616826576
99995.6751220855
99925.77449616135
101855.70460241286
150413.37161631626
334695.1559764194
612749.7423432646
827148.1347327888
920714.5888389756
948587.5643887708
955832.9630770787
957318.8267193818
956423.8771281473
953692.6242978727
949049.1106988159
942240.4844358617
932902.0320028834