# vtk DataFile Version 2.0
JuliaCFD
ASCII
DATASET UNSTRUCTURED_GRID

POINTS 32898 float
0.0 0.0 -0.05
0.0125 0.0 -0.05
0.025 0.0 -0.05
0.0375 0.0 -0.05
0.05 0.0 -0.05
0.0625 0.0 -0.05
0.075 0.0 -0.05
0.0875 0.0 -0.05
0.1 0.0 -0.05
0.1125 0.0 -0.05
0.125 0.0 -0.05
0.1375 0.0 -0.05
0.15 0.0 -0.05
0.1625 0.0 -0.05
0.175 0.0 -0.05
0.1875 0.0 -0.05
0.2 0.0 -0.05
0.2125 0.0 -0.05
0.225 0.0 -0.05
0.2375 0.0 -0.05
0.25 0.0 -0.05
0.2625 0.0 -0.05
0.275 0.0 -0.05
0.2875 0.0 -0.05
0.3 0.0 -0.05
0.3125 0.0 -0.05
0.325 0.0 -0.05
0.3375 0.0 -0.05
0.35 0.0 -0.05
0.3625 0.0 -0.05
0.375 0.0 -0.05
0.3875 0.0 -0.05
0.4 0.0 -0.05
0.4125 0.0 -0.05
0.425 0.0 -0.05
0.4375 0.0 -0.05
0.45 0.0 -0.05
0.4625 0.0 -0.05
0.475 0.0 -0.05
0.4875 0.0 -0.05
0.5 0.0 -0.05
0.5125 0.0 -0.05
0.525 0.0 -0.05
0.5375 0.0 -0.05
0.55 0.0 -0.05
0.5625 0.0 -0.05
0.575 0.0 -0.05
0.5875 0.0 -0.05
0.6 0.0 -0.05
0.0 0.0125 -0.05
0.0125 0.0125 -0.05
0.025 0.0125 -0.05
0.0375 0.0125 -0.05
0.05 0.0125 -0.05
0.0625 0.0125 -0.05
0.075 0.0125 -0.05
0.0875 0.0125 -0.05
0.1 0.0125 -0.05
0.1125 0.0125 -0.05
0.125 0.0125 -0.05
0.1375 0.0125 -0.05
0.15 0.0125 -0.05
0.1625 0.0125 -0.05
0.175 0.0125 -0.05
0.1875 0.0125 -0.05
0.2 0.0125 -0.05
0.2125 0.0125 -0.05
0.225 0.0125 -0.05
0.2375 0.0125 -0.05
0.25 0.0125 -0.05
0.2625 0.0125 -0.05
0.275 0.0125 -0.05
0.2875 0.0125 -0.05
0.3 0.0125 -0.05
0.3125 0.0125 -0.05
0.325 0.0125 -0.05
0.3375 0.0125 -0.05
0.35 0.0125 -0.05
0.3625 0.0125 -0.05
0.375 0.0125 -0.05
0.3875 0.0125 -0.05
0.4 0.0125 -0.05
0.4125 0.0125 -0.05
0.425 0.0125 -0.05
0.4375 0.0125 -0.05
0.45 0.0125 -0.05
0.4625 0.0125 -0.05
0.475 0.0125 -0.05
0.4875 0.0125 -0.05
0.5 0.0125 -0.05
0.5125 0.0125 -0.05
0.525 0.0125 -0.05
0.5375 0.0125 -0.05
0.55 0.0125 -0.05
0.5625 0.0125 -0.05
0.575 0.0125 -0.05
0.5875 0.0125 -0.05
0.6 0.0125 -0.05
0.0 0.025 -0.05
0.0125 0.025 -0.05
0.025 0.025 -0.05
0.0375 0.025 -0.05
0.05 0.025 -0.05
0.0625 0.025 -0.05
0.075 0.025 -0.05
0.0875 0.025 -0.05
0.1 0.025 -0.05
0.1125 0.025 -0.05
0.125 0.025 -0.05
0.1375 0.025 -0.05
0.15 0.025 -0.05
0.1625 0.025 -0.05
0.175 0.025 -0.05
0.1875 0.025 -0.05
0.2 0.025 -0.05
0.2125 0.025 -0.05
0.225 0.025 -0.05
0.2375 0.025 -0.05
0.25 0.025 -0.05
0.2625 0.025 -0.05
0.275 0.025 -0.05
0.2875 0.025 -0.05
0.3 0.025 -0.05
0.3125 0.025 -0.05
0.325 0.025 -0.05
0.3375 0.025 -0.05
0.35 0.025 -0.05
0.3625 0.025 -0.05
0.375 0.025 -0.05
0.3875 0.025 -0.05
0.4 0.025 -0.05
0.4125 0.025 -0.05
0.425 0.025 -0.05
0.4375 0.025 -0.05
0.45 0.025 -0.05
0.4625 0.025 -0.05
0.475 0.025 -0.05
0.4875 0.025 -0.05
0.5 0.025 -0.05
0.5125 0.025 -0.05
0.525 0.025 -0.05
0.5375 0.025 -0.05
0.55 0.025 -0.05
0.5625 0.025 -0.05
0.575 0.025 -0.05
0.5875 0.025 -0.05
0.6 0.025 -0.05
0.0 0.0375 -0.05
0.0125 0.0375 -0.05
0.025 0.0375 -0.05
0.0375 0.0375 -0.05
0.05 0.0375 -0.05
0.0625 0.0375 -0.05
0.075 0.0375 -0.05
0.0875 0.0375 -0.05
0.1 0.0375 -0.05
0.1125 0.0375 -0.05
0.125 0.0375 -0.05
0.1375 0.0375 -0.05
0.15 0.0375 -0.05
0.1625 0.0375 -0.05
0.175 0.0375 -0.05
0.1875 0.0375 -0.05
0.2 0.0375 -0.05
0.2125 0.0375 -0.05
0.225 0.0375 -0.05
0.2375 0.0375 -0.05
0.25 0.0375 -0.05
0.2625 0.0375 -0.05
0.275 0.0375 -0.05
0.2875 0.0375 -0.05
0.3 0.0375 -0.05
0.3125 0.0375 -0.05
0.325 0.0375 -0.05
0.3375 0.0375 -0.05
0.35 0.0375 -0.05
0.3625 0.0375 -0.05
0.375 0.0375 -0.05
0.3875 0.0375 -0.05
0.4 0.0375 -0.05
0.4125 0.0375 -0.05
0.425 0.0375 -0.05
0.4375 0.0375 -0.05
0.45 0.0375 -0.05
0.4625 0.0375 -0.05
0.475 0.0375 -0.05
0.4875 0.0375 -0.05
0.5 0.0375 -0.05
0.5125 0.0375 -0.05
0.525 0.0375 -0.05
0.5375 0.0375 -0.05
0.55 0.0375 -0.05
0.5625 0.0375 -0.05
0.575 0.0375 -0.05
0.5875 0.0375 -0.05
0.6 0.0375 -0.05
0.0 0.05 -0.05
0.0125 0.05 -0.05
0.025 0.05 -0.05
0.0375 0.05 -0.05
0.05 0.05 -0.05
0.0625 0.05 -0.05
0.075 0.05 -0.05
0.0875 0.05 -0.05
0.1 0.05 -0.05
0.1125 0.05 -0.05
0.125 0.05 -0.05
0.1375 0.05 -0.05
0.15 0.05 -0.05
0.1625 0.05 -0.05
0.175 0.05 -0.05
0.1875 0.05 -0.05
0.2 0.05 -0.05
0.2125 0.05 -0.05
0.225 0.05 -0.05
0.2375 0.05 -0.05
0.25 0.05 -0.05
0.2625 0.05 -0.05
0.275 0.05 -0.05
0.2875 0.05 -0.05
0.3 0.05 -0.05
0.3125 0.05 -0.05
0.325 0.05 -0.05
0.3375 0.05 -0.05
0.35 0.05 -0.05
0.3625 0.05 -0.05
0.375 0.05 -0.05
0.3875 0.05 -0.05
0.4 0.05 -0.05
0.4125 0.05 -0.05
0.425 0.05 -0.05
0.4375 0.05 -0.05
0.45 0.05 -0.05
0.4625 0.05 -0.05
0.475 0.05 -0.05
0.4875 0.05 -0.05
0.5 0.05 -0.05
0.5125 0.05 -0.05
0.525 0.05 -0.05
0.5375 0.05 -0.05
0.55 0.05 -0.05
0.5625 0.05 -0.05
0.575 0.05 -0.05
0.5875 0.05 -0.05
0.6 0.05 -0.05
0.0 0.0625 -0.05
0.0125 0.0625 -0.05
0.025 0.0625 -0.05
0.0375 0.0625 -0.05
0.05 0.0625 -0.05
0.0625 0.0625 -0.05
0.075 0.0625 -0.05
0.0875 0.0625 -0.05
0.1 0.0625 -0.05
0.1125 0.0625 -0.05
0.125 0.0625 -0.05
0.1375 0.0625 -0.05
0.15 0.0625 -0.05
0.1625 0.0625 -0.05
0.175 0.0625 -0.05
0.1875 0.0625 -0.05
0.2 0.0625 -0.05
0.2125 0.0625 -0.05
0.225 0.0625 -0.05
0.2375 0.0625 -0.05
0.25 0.0625 -0.05
0.2625 0.0625 -0.05
0.275 0.0625 -0.05
0.2875 0.0625 -0.05
0.3 0.0625 -0.05
0.3125 0.0625 -0.05
0.325 0.0625 -0.05
0.3375 0.0625 -0.05
0.35 0.0625 -0.05
0.3625 0.0625 -0.05
0.375 0.0625 -0.05
0.3875 0.0625 -0.05
0.4 0.0625 -0.05
0.4125 0.0625 -0.05
0.425 0.0625 -0.05
0.4375 0.0625 -0.05
0.45 0.0625 -0.05
0.4625 0.0625 -0.05
0.475 0.0625 -0.05
0.4875 0.0625 -0.05
0.5 0.0625 -0.05
0.5125 0.0625 -0.05
0.525 0.0625 -0.05
0.5375 0.0625 -0.05
0.55 0.0625 -0.05
0.5625 0.0625 -0.05
0.575 0.0625 -0.05
0.5875 0.0625 -0.05
0.6 0.0625 -0.05
0.0 0.075 -0.05
0.0125 0.075 -0.05
0.025 0.075 -0.05
0.0375 0.075 -0.05
0.05 0.075 -0.05
0.0625 0.075 -0.05
0.075 0.075 -0.05
0.0875 0.075 -0.05
0.1 0.075 -0.05
0.1125 0.075 -0.05
0.125 0.075 -0.05
0.1375 0.075 -0.05
0.15 0.075 -0.05
0.1625 0.075 -0.05
0.175 0.075 -0.05
0.1875 0.075 -0.05
0.2 0.075 -0.05
0.2125 0.075 -0.05
0.225 0.075 -0.05
0.2375 0.075 -0.05
0.25 0.075 -0.05
0.2625 0.075 -0.05
0.275 0.075 -0.05
0.2875 0.075 -0.05
0.3 0.075 -0.05
0.3125 0.075 -0.05
0.325 0.075 -0.05
0.3375 0.075 -0.05
0.35 0.075 -0.05
0.3625 0.075 -0.05
0.375 0.075 -0.05
0.3875 0.075 -0.05
0.4 0.075 -0.05
0.4125 0.075 -0.05
0.425 0.075 -0.05
0.4375 0.075 -0.05
0.45 0.075 -0.05
0.4625 0.075 -0.05
0.475 0.075 -0.05
0.4875 0.075 -0.05
0.5 0.075 -0.05
0.5125 0.075 -0.05
0.525 0.075 -0.05
0.5375 0.075 -0.05
0.55 0.075 -0.05
0.5625 0.075 -0.05
0.575 0.075 -0.05
0.5875 0.075 -0.05
0.6 0.075 -0.05
0.0 0.0875 -0.05
0.0125 0.0875 -0.05
0.025 0.0875 -0.05
0.0375 0.0875 -0.05
0.05 0.0875 -0.05
0.0625 0.0875 -0.05
0.075 0.0875 -0.05
0.0875 0.0875 -0.05
0.1 0.0875 -0.05
0.1125 0.0875 -0.05
0.125 0.0875 -0.05
0.1375 0.0875 -0.05
0.15 0.0875 -0.05
0.1625 0.0875 -0.05
0.175 0.0875 -0.05
0.1875 0.0875 -0.05
0.2 0.0875 -0.05
0.2125 0.0875 -0.05
0.225 0.0875 -0.05
0.2375 0.0875 -0.05
0.25 0.0875 -0.05
0.2625 0.0875 -0.05
0.275 0.0875 -0.05
0.2875 0.0875 -0.05
0.3 0.0875 -0.05
0.3125 0.0875 -0.05
0.325 0.0875 -0.05
0.3375 0.0875 -0.05
0.35 0.0875 -0.05
0.3625 0.0875 -0.05
0.375 0.0875 -0.05
0.3875 0.0875 -0.05
0.4 0.0875 -0.05
0.4125 0.0875 -0.05
0.425 0.0875 -0.05
0.4375 0.0875 -0.05
0.45 0.0875 -0.05
0.4625 0.0875 -0.05
0.475 0.0875 -0.05
0.4875 0.0875 -0.05
0.5 0.0875 -0.05
0.5125 0.0875 -0.05
0.525 0.0875 -0.05
0.5375 0.0875 -0.05
0.55 0.0875 -0.05
0.5625 0.0875 -0.05
0.575 0.0875 -0.05
0.5875 0.0875 -0.05
0.6 0.0875 -0.05
0.0 0.1 -0.05
0.0125 0.1 -0.05
0.025 0.1 -0.05
0.0375 0.1 -0.05
0.05 0.1 -0.05
0.0625 0.1 -0.05
0.075 0.1 -0.05
0.0875 0.1 -0.05
0.1 0.1 -0.05
0.1125 0.1 -0.05
0.125 0.1 -0.05
0.1375 0.1 -0.05
0.15 0.1 -0.05
0.1625 0.1 -0.05
0.175 0.1 -0.05
0.1875 0.1 -0.05
0.2 0.1 -0.05
0.2125 0.1 -0.05
0.225 0.1 -0.05
0.2375 0.1 -0.05
0.25 0.1 -0.05
0.2625 0.1 -0.05
0.275 0.1 -0.05
0.2875 0.1 -0.05
0.3 0.1 -0.05
0.3125 0.1 -0.05
0.325 0.1 -0.05
0.3375 0.1 -0.05
0.35 0.1 -0.05
0.3625 0.1 -0.05
0.375 0.1 -0.05
0.3875 0.1 -0.05
0.4 0.1 -0.05
0.4125 0.1 -0.05
0.425 0.1 -0.05
0.4375 0.1 -0.05
0.45 0.1 -0.05
0.4625 0.1 -0.05
0.475 0.1 -0.05
0.4875 0.1 -0.05
0.5 0.1 -0.05
0.5125 0.1 -0.05
0.525 0.1 -0.05
0.5375 0.1 -0.05
0.55 0.1 -0.05
0.5625 0.1 -0.05
0.575 0.1 -0.05
0.5875 0.1 -0.05
0.6 0.1 -0.05
0.0 0.1125 -0.05
0.0125 0.1125 -0.05
0.025 0.1125 -0.05
0.0375 0.1125 -0.05
0.05 0.1125 -0.05
0.0625 0.1125 -0.05
0.075 0.1125 -0.05
0.0875 0.1125 -0.05
0.1 0.1125 -0.05
0.1125 0.1125 -0.05
0.125 0.1125 -0.05
0.1375 0.1125 -0.05
0.15 0.1125 -0.05
0.1625 0.1125 -0.05
0.175 0.1125 -0.05
0.1875 0.1125 -0.05
0.2 0.1125 -0.05
0.2125 0.1125 -0.05
0.225 0.1125 -0.05
0.2375 0.1125 -0.05
0.25 0.1125 -0.05
0.2625 0.1125 -0.05
0.275 0.1125 -0.05
0.2875 0.1125 -0.05
0.3 0.1125 -0.05
0.3125 0.1125 -0.05
0.325 0.1125 -0.05
0.3375 0.1125 -0.05
0.35 0.1125 -0.05
0.3625 0.1125 -0.05
0.375 0.1125 -0.05
0.3875 0.1125 -0.05
0.4 0.1125 -0.05
0.4125 0.1125 -0.05
0.425 0.1125 -0.05
0.4375 0.1125 -0.05
0.45 0.1125 -0.05
0.4625 0.1125 -0.05
0.475 0.1125 -0.05
0.4875 0.1125 -0.05
0.5 0.1125 -0.05
0.5125 0.1125 -0.05
0.525 0.1125 -0.05
0.5375 0.1125 -0.05
0.55 0.1125 -0.05
0.5625 0.1125 -0.05
0.575 0.1125 -0.05
0.5875 0.1125 -0.05
0.6 0.1125 -0.05
0.0 0.125 -0.05
0.0125 0.125 -0.05
0.025 0.125 -0.05
0.0375 0.125 -0.05
0.05 0.125 -0.05
0.0625 0.125 -0.05
0.075 0.125 -0.05
0.0875 0.125 -0.05
0.1 0.125 -0.05
0.1125 0.125 -0.05
0.125 0.125 -0.05
0.1375 0.125 -0.05
0.15 0.125 -0.05
0.1625 0.125 -0.05
0.175 0.125 -0.05
0.1875 0.125 -0.05
0.2 0.125 -0.05
0.2125 0.125 -0.05
0.225 0.125 -0.05
0.2375 0.125 -0.05
0.25 0.125 -0.05
0.2625 0.125 -0.05
0.275 0.125 -0.05
0.2875 0.125 -0.05
0.3 0.125 -0.05
0.3125 0.125 -0.05
0.325 0.125 -0.05
0.3375 0.125 -0.05
0.35 0.125 -0.05
0.3625 0.125 -0.05
0.375 0.125 -0.05
0.3875 0.125 -0.05
0.4 0.125 -0.05
0.4125 0.125 -0.05
0.425 0.125 -0.05
0.4375 0.125 -0.05
0.45 0.125 -0.05
0.4625 0.125 -0.05
0.475 0.125 -0.05
0.4875 0.125 -0.05
0.5 0.125 -0.05
0.5125 0.125 -0.05
0.525 0.125 -0.05
0.5375 0.125 -0.05
0.55 0.125 -0.05
0.5625 0.125 -0.05
0.575 0.125 -0.05
0.5875 0.125 -0.05
0.6 0.125 -0.05
0.0 0.1375 -0.05
0.0125 0.1375 -0.05
0.025 0.1375 -0.05
0.0375 0.1375 -0.05
0.05 0.1375 -0.05
0.0625 0.1375 -0.05
0.075 0.1375 -0.05
0.0875 0.1375 -0.05
[...]
CELL_DATA 16128
SCALARS P float 1
LOOKUP_TABLE default
100000.0
100000.0
100000.0
100000.0
100000.0
100000.0
100000.0
99999.99999999988
99999.99999999981
99999.99999999962
99999.99999999967
99999.99999999939
99999.99999999916
100000.00000000295
99999.99999998028
100000.00000008012
99999.99999973063
100000.00000066908
99999.99999924874
99999.99999593984
100000.00003633714
99999.99981746712
100000.00071096567
99999.99773994031
100000.0056244706
99999.99170052007
99999.98589903738
100000.18191964582
99999.04504820316
100003.7989140722
99987.3992199952
100035.02682972117
99925.94171531635
100338.66420529244
153892.28013211783
431726.34368089016
894492.0194483221
1.2405783788169848e6
1.314611563958382e6
1.2963701000608942e6
1.2968871094274782e6
1.2973394810359199e6
1.296196298440566e6
1.2960466406624776e6
1.295351880254115e6
1.2960461488978395e6
1.2930635613401777e6
1.3014070120762766e6
100000.0
99999.99999999988
100000.0
100000.0
100000.0
100000.0
100000.0
99999.99999999988
99999.99999999988
99999.99999999962
99999.99999999974
99999.99999999949
99999.99999999936
100000.00000000268
99999.99999998123
100000.00000007798
99999.99999973245
100000.00000068524
99999.99999911556
99999.99999660342
100000.00003376794
99999.9998254465
100000.00069270356
99999.99775559733
100000.00575169176
99999.99071515953
99999.99048629717
100000.165279303
99999.093741634
100003.691648966
99987.5093860267
100035.49855331764
99922.83458011688
100292.47453465647
152072.00312828505
428128.09124561195
895477.160575732
1.2514081532145392e6
1.3311920721072147e6
1.3134766175783966e6
1.313407802824979e6
1.31296018022423e6
1.3107075775432282e6
1.309512379569338e6
1.3079673656386838e6
1.3080295404418353e6
1.304554187640567e6
1.312912772331581e6
99999.99999999994
99999.99999999988
100000.0
100000.0
100000.0
100000.0
99999.99999999988
99999.99999999988
99999.99999999988
99999.99999999971
99999.9999999998
99999.99999999965
99999.9999999996
100000.0000000023
99999.99999998305
100000.00000007343
99999.99999973939
100000.00000070517
99999.99999888272
99999.99999787702
100000.00002851665
99999.99984288595
100000.00064802215
99999.99781985959
100000.00590334694
99999.98895985362
99999.99968787974
100000.12874395562
99999.212518214
100003.38058889307
99988.06903618308
100035.55010062669
99917.83291902857
100190.96350168895
147171.01479307085
413082.54399352416
875822.8456812524
1.2376452937787564e6
1.3242250783163446e6
1.3072647676434712e6
1.306769017176421e6
1.3066954662092617e6
1.3048178202752443e6
1.3039193704048668e6
1.3026429263336598e6
1.3028765827251484e6
1.2994795194214745e6
1.3081744723168353e6
100000.0
100000.0
100000.0
100000.0
99999.99999999988
99999.99999999988
99999.99999999988
99999.99999999988
99999.99999999988
99999.99999999971
99999.99999999956
99999.99999999953
99999.99999999987
100000.00000000172
99999.99999998543
100000.000000066
99999.9999997528
100000.00000071964
99999.99999859944
99999.99999956539
100000.00002119761
99999.99986840678
100000.00057768042
99999.99794611981
100000.00598258339
99999.98688705212
100000.01182553673
100000.0774080462
99999.38950161138
100002.87935630808
99989.13677918272
100034.63925518216
99912.90317604002
100081.669675124
140030.16936686754
390344.64246960415
847747.6904196634
1.2228171783614582e6
1.3229894574953027e6
1.3080057853603058e6
1.3068638048471904e6
1.3070315627466673e6
1.3052351736621414e6
1.3043004339441576e6
1.3030150199149128e6
1.303218363087537e6
1.2997311789653762e6
1.3088234770292067e6
99999.99999999994
99999.99999999988
99999.99999999988
99999.99999999988
99999.99999999988
99999.99999999988
99999.99999999988
99999.99999999988
99999.99999999988
99999.99999999971
99999.99999999983
99999.9999999995
100000.00000000006
100000.00000000096
99999.99999998846
100000.00000005637
99999.9999997741
100000.00000071421
99999.9999983347
100000.00000140393
100000.00001261612
99999.99990030222
100000.0004819826
99999.99815540641
100000.0058474758
99999.9851462552
100000.02452293783
100000.01832333149
99999.60924755815
100002.19971306542
99990.82277558952
100031.95851145036
99910.92009195265
100011.11067289098
131519.6781299431
360547.42844187754
808900.4423804741
1.2002523705124345e6
1.3189101150715034e6
1.3068543647916254e6
1.3044963892628958e6
1.3047643117257406e6
1.303027136898735e6
1.302041171585123e6
1.3007568439244642e6
1.300946404562224e6
1.297357369015558e6
1.3069763037898997e6
100000.0
99999.99999999988
99999.99999999988
99999.99999999988
99999.99999999977
99999.99999999988
99999.99999999988
99999.99999999988
99999.99999999977
99999.99999999975
99999.99999999994
99999.99999999959
99999.99999999993
100000.00000000012
99999.99999999205
100000.0000000446
99999.99999980467
100000.00000067636
99999.99999816153
100000.00000308058
100000.0000038492
99999.99993568892
100000.00036538213
99999.99845718815
100000.00537632476
99999.98440960536
100000.03498359432
99999.96099044083
99999.84589150215
100001.38904621394
99993.1421786956
100026.84274339475
99915.61684259136
99997.35976264332
122686.56665458658
325138.1028857072
759507.311162984
1.1694956075957413e6
1.3128811032024396e6
1.3059670339544222e6
1.3021938017712026e6
1.3025183747797222e6
1.3008640411130136e6
1.2998057515754919e6
1.2984997808538605e6
1.2986680242023868e6
1.2949310177833245e6
1.3052444782076902e6
100000.0
99999.99999999988
99999.99999999988
99999.99999999988
99999.99999999988
99999.99999999983
99999.99999999971
99999.99999999971
99999.99999999971
99999.99999999975
99999.99999999971
99999.99999999965
100000.00000000012
99999.99999999923
99999.99999999559
100000.00000003136
99999.99999984358
100000.00000059915
99999.99999813817
100000.00000429462
99999.99999611494
99999.99997054077
100000.00023813089
99999.9988377042
100000.0045231349
99999.98516257764
100000.04062079775
99999.91604446288
100000.06327222961
100000.54731381763
99995.90174783322
100019.29057023083
99929.69834314908
100022.75795341315
114571.57877932023
285932.1578559766
699746.0632876763
1.1285239247678588e6
1.3030612866038291e6
1.3044693387020507e6
1.2991456096102726e6
1.2993467406495614e6
1.297752394413684e6
1.2965741807043008e6
1.295199587584242e6
1.2953228835945858e6
1.2913745207102096e6
1.3025829551124675e6
100000.0
99999.99999999988
99999.99999999988
99999.99999999988
99999.99999999977
99999.99999999977
99999.99999999971
99999.99999999971
99999.99999999971
99999.99999999971
99999.99999999971
99999.99999999949
100000.00000000006
99999.99999999862
99999.99999999875
100000.00000001836
99999.9999998876
100000.00000048574
99999.9999982896
100000.00000483183
99999.99999051912
100000.00000034491
100000.00011545271
99999.99925620877
100000.00335503693
99999.98750272766
100000.03989503853
99999.89240794124
100000.22250313082
99999.81531321863
99998.67548280528
100010.28848838856
99952.74500572962
100048.34672470657
108030.62636579189
245200.4615428023
630427.2630366207
1.075458842124889e6
1.2876142519242698e6
1.3020009892249997e6
1.2953645168566783e6
1.2952206492674947e6
1.2936689317346688e6
1.2923344694409536e6
1.2908427713579014e6
1.290896032778934e6
1.2866636903070628e6
1.2990210578340448e6
100000.0
99999.99999999988
100000.0
99999.99999999988
99999.99999999988
99999.99999999988
99999.99999999977
99999.99999999971
99999.99999999971
99999.99999999965
99999.99999999971
99999.99999999948
100000.00000000017
99999.99999999815
100000.000000001
100000.00000000674
99999.99999993191
100000.00000034897
99999.99999859738
100000.00000463109
99999.99998774896
100000.00002125344
100000.0000140163
99999.99965255418
100000.00205112722
99999.99103796881
100000.03303094587
99999.8938238332
100000.29551800074
99999.33115451138
100000.91122208997
100001.69761240316
99980.12927548647
100042.67316492765
103539.17904631968
205593.54482166734
553158.1265723091
1.008517271568013e6
1.2640007954874763e6
1.2977427529874416e6
1.29062442864822e6
1.2898290589687258e6
1.288241485973536e6
1.286674279842755e6
1.2849664318099017e6
1.284873598317022e6
1.2802342307634808e6
1.294036842957603e6
100000.0
99999.99999999988
100000.0
99999.99999999988
99999.99999999988
99999.99999999988
99999.99999999988
99999.99999999988
99999.99999999977
99999.99999999975
99999.9999999997
99999.99999999955
99999.99999999999
99999.99999999822
100000.00000000247
99999.99999999779
99999.99999997072
100000.0000002093
99999.99999900188
100000.00000381113
99999.99998783864
100000.00003133176
99999.99994667184
99999.9999656083
100000.00085137074
99999.99497293116
100000.02216054739
99999.91661618713
100000.27846696388
99999.17006975778
100002.1533172141
99995.58365796586
100004.22719213676
100004.72027280244
101066.21958004955
169938.90376887398
470573.8190332907
926462.8909955788
1.2290593265857443e6
1.290419599054948e6
1.2846743500312548e6
1.2828969673482932e6
1.2811229376004245e6
1.279212203923599e6
1.2771540539887825e6
1.2768096972004212e6
1.2716152674077165e6
1.287246815478277e6
100000.0
100000.0
100000.0
100000.0
99999.99999999988
99999.99999999988
99999.99999999983
99999.99999999988
99999.99999999977
99999.99999999971
99999.99999999967
99999.9999999996
99999.99999999983
99999.99999999853
100000.00000000314
99999.99999999239
99999.99999999972
100000.00000008826
99999.99999942014
100000.00000263844
99999.99999013556
100000.00003129734
99999.99991771628
100000.00015562576
99999.9999692944
99999.9983922882
100000.0106174285
99999.95049779963
100000.19630065585
99999.3009341399
100002.27821135297
99993.20859713659
100018.0314785951
99961.76472092602
100114.19861198745
140825.01585552335
386449.44210286957
829149.9977749506
1.1790851157265813e6
1.278013980659114e6
1.2770904497495773e6
1.2740797907320997e6
1.271822884244638e6
1.2693211862612218e6
1.2665995941600918e6
1.2656738107600335e6
1.259529670040916e6
1.2773388322268745e6
100000.0
100000.0
100000.0
100000.0
100000.0
99999.99999999988
99999.99999999988
99999.99999999988
99999.9999999997
99999.99999999971
99999.99999999977
99999.99999999962
100000.00000000003
99999.99999999882
100000.00000000262
99999.99999999076
100000.00000001665
100000.0000000017
99999.99999977236
100000.00000143643
99999.99999352587
100000.00002426998
99999.99992127703
100000.00021946285
99999.99950826216
100000.00062780059
100000.00157730708
99999.9827777569
100000.09298410792
99999.5938324048
100001.58383334121
99994.28562179956
100019.24801271224
99943.67182864712
99964.55894434327
119959.02954124559
305609.48887905804
718168.65112661
1.1101892562580009e6
1.2575045013793993e6
1.2671844688645925e6
1.2630788232633877e6
1.2599495619960953e6
1.256559869287378e6
1.252858210736847e6
1.2510737903747836e6
1.243688968239734e6
1.2643367957553263e6
100000.0
100000.0
100000.0
100000.0
100000.0
100000.0
100000.0
99999.99999999988
99999.99999999965
99999.99999999965
99999.99999999965
99999.99999999965
99999.99999999975
99999.999999999
100000.00000000186
99999.99999999139
100000.0000000221
99999.99999995489
100000.00000000907
100000.00000047564
99999.99999684325
100000.00001452945
99999.99994405
100000.00018961987
99999.99942751699
100000.00151465612
99999.99673384897
100000.0040110657
100000.01076054278
99999.8846609843
100000.63438511289
99997.1285246454
100011.72836375918
99957.60071242187
100021.95054933426
107492.1751155079
233521.34779405408
597434.0861639332
1.0190123368800994e6
1.224574950948228e6
1.2536558946489948e6
1.2494066958174326e6
1.244769294159647e6
1.239725438641304e6
1.2339817339109306e6
1.2299128223642397e6
1.219443711943067e6
1.2424287524729217e6
100000.0
100000.0
100000.0
100000.0
100000.0
100000.0
100000.0
99999.99999999993
99999.99999999983
99999.99999999977
99999.99999999962
99999.99999999967
99999.9999999997
99999.99999999929
100000.00000000086
99999.99999999389
100000.00000001953
99999.99999994271
100000.0000001217
99999.99999989019
99999.99999927105
100000.00000585939
99999.99997116328
100000.00011690652
99999.99957910189
100000.00138472451
99999.99579632023
100000.01172009754
99999.9707926616
100000.05943145514
99999.93977939156
99999.71282425703
100002.653830598
99986.01664506705
100025.20886848558
101796.50065055641
175439.22412883575
473525.6723238037
903974.5358593764
1.1736528626960097e6
1.234378148303526e6
1.2327377593834319e6
1.22619864257597e6
1.218947697339063e6
1.210692325260921e6
1.2041422143605673e6
1.190748194416303e6
1.2182275912488054e6
100000.00000000009
100000.0
100000.00000000003
100000.00000000003
99999.99999999994
99999.99999999994
99999.99999999994
99999.99999999994
99999.99999999994
99999.99999999994
99999.99999999971
99999.99999999977
99999.99999999962
99999.99999999962
100000.0000000002
99999.99999999625
100000.00000001298
99999.99999995253
100000.00000013814
99999.99999966356
100000.00000054283
100000.0000003253
99999.99999198352
100000.00004676446
99999.9997923484
100000.00080856473
99999.99709684378
100000.00985051697
99999.96797722693
100000.10048676936
99999.69497958037
100000.89165220612
99997.52713092352
100006.3225854769
99983.5927264979
100130.18901662518
134927.80952972054
355417.8971149553
766855.6250283476
1.0982520267873842e6
1.205544703529981e6
1.2119596051570445e6
1.2030139339774589e6
1.1915263495373747e6
1.1771777189152285e6
1.1618334378883897e6
1.1349576729555575e6
1.1539314917870448e6
100000.0
100000.0
100000.0
100000.0
100000.0
99999.99999999988
99999.99999999988
99999.99999999988
99999.99999999977
99999.99999999981
99999.99999999965
99999.9999999997
99999.99999999962
99999.9999999998
99999.99999999967
99999.99999999844
100000.00000000629
99999.99999997081
100000.00000010252
99999.99999967785
100000.00000086964
99999.99999806058
100000.0000027826
100000.00000308112
99999.9999518575
100000.00026861875
99999.99881188807
100000.00472520955
99999.98226985427
100000.06436572157
99999.7704081144
100000.81282571403
99997.12634889172
100010.12865036809
99966.81288224812
99972.09147414852
112037.9203019991
253336.9677913084
614470.2031639501
992543.0843557232
1.1615838094873016e6
1.18609597814913e6
1.1762191676057265e6
1.160303792739282e6
1.1403842288982323e6
1.1190575403806986e6
1.086135041514815e6
1.1129889216558444e6
100000.0
100000.0
100000.0
100000.0
100000.0
100000.0
100000.0
99999.99999999988
99999.99999999981
99999.99999999988
99999.99999999983
99999.9999999997
99999.99999999964
99999.99999999955
99999.99999999945
99999.9999999997
100000.00000000144
99999.99999998714
100000.00000005467
99999.99999979333
100000.00000068019
99999.99999797049
100000.00000545524
99999.99998707332
100000.00002476737
99999.99997583061
99999.99990464725
100000.00083185034
99999.99573098726
100000.01870115743
99999.92351864562
100000.3033528049
99998.8092348891
100004.6568172162
99982.85362059923
100009.44649194369
102586.45604240702
176409.91631160263
459351.10742538184
853858.7117535244
1.094248951555205e6
1.1517331041116186e6
1.1438716639546885e6
1.1203309308931937e6
1.0856813743296138e6
1.0356787938880505e6
943952.7912808288
797080.7592094513
100000.0
100000.0
100000.0
100000.0
100000.0
100000.0
100000.0
99999.99999999994
99999.99999999988
99999.99999999981
99999.9999999997
99999.99999999965
99999.99999999967
99999.99999999965
99999.99999999933
100000.0000000001
99999.99999999888
99999.99999999764
100000.00000001815
99999.9999999087
100000.00000035942
99999.99999873692
100000.00000407225
99999.9999876717
100000.00003544193
99999.99990238865
100000.00025908863
99999.99933426462
100000.00166110815
99999.99596727378
100000.00953207674
99999.97812227148
100000.04813574575
99999.89857850951
100000.40912447408
99990.58249713024
100208.54941360604
129039.4466435762
318527.67627673026
686991.0110628839
994425.5001990973
1.1043876150468574e6
1.1078495390312753e6
1.0796230554125854e6
1.0344917421934893e6
969233.4142834453
862661.6964865928
706253.8334495219
100000.0
100000.0
100000.0
100000.0
100000.0
100000.0
100000.0
100000.0
99999.99999999993
99999.99999999983
99999.99999999977
99999.99999999977
99999.99999999971
99999.99999999981
99999.99999999962
100000.00000000023
99999.99999999825
100000.00000000194
99999.99999999895
99999.9999999809
100000.00000011633
99999.99999948723
100000.00000192794
99999.99999333308
100000.00002184133
99999.99993070505
100000.00021637179
99999.99932555531
100000.00212567195
99999.99314728266
100000.02281724829
99999.92097342563
100000.28579617647
99998.91983203996
100004.25764461853
99983.44923625387
99981.64780980877
107431.1188183332
209099.79897695495
507578.65213802696
855278.1629084762
1.0355999335803516e6
1.0669478610737293e6
1.0410467223189669e6
991128.3913594148
920220.0787446466
815497.354575274
676027.2657512733
100000.00000000009
100000.0
100000.00000000004
100000.0
100000.00000000004
100000.0
100000.0
100000.0
100000.0
100000.0
99999.99999999994
99999.99999999994
99999.99999999977
99999.99999999983
99999.99999999952
100000.00000000009
99999.99999999857
100000.00000000252
99999.99999999294
100000.00000001033
99999.99999999684
99999.99999991622
100000.00000049795
99999.99999785835
100000.0000080261
99999.99997197984
100000.00009399062
99999.99969111389
100000.00100782009
99999.99670316187
100000.01089272018
99999.96344852408
100000.12508633197
99999.56217343135
100001.56064079326
99994.88918056374
99990.20944729025
101060.22534624174
141053.4398318245
341027.3116211672
679437.1539910447
933267.1812509556
1.0151488190660727e6
1.0036522808808802e6
955282.2023727195
884697.488269276
787501.8800797778
666705.2940931002
100000.0
100000.0
100000.0
100000.0
99999.99999999988
99999.99999999988
99999.99999999981
99999.99999999988
99999.99999999988
99999.99999999993
99999.99999999994
99999.99999999994
99999.99999999983
99999.99999999985
99999.9999999997
99999.99999999971
99999.99999999886
100000.00000000173
99999.99999999363
100000.00000001474
99999.99999996471
100000.00000006643
99999.99999991145
99999.99999995154
100000.00000095124
99999.99999515514
100000.00001919614
99999.99993207828
100000.00022440497
99999.99929648968
100000.00209051973
99999.9942397503
100000.01368706867
99999.97986052495
99999.94270804893
100000.92645464458
99990.24984339697
100049.25583355286
110470.58436034154
213705.00461928634
486727.7473246515
787358.4375096633
940512.2440846731
962303.1365089035
924339.6289178019
858680.1730950837
770684.9401550795
665822.1826525681
100000.0
100000.0
100000.0
100000.0
100000.0
100000.0
100000.0
100000.0
100000.0
100000.0
99999.99999999993
99999.99999999994
99999.99999999977
99999.99999999975
99999.99999999967
99999.9999999999
99999.99999999926
100000.0000000005
99999.99999999607
100000.00000000991
99999.99999997062
100000.00000007542
99999.99999980979
100000.00000045347
99999.99999895006
100000.00000237099
99999.99999460636
100000.00001303016
99999.99996381612
100000.00012134032
99999.99952389265
100000.00202906816
99999.9911191265
100000.0388907273
99999.83054135206
100000.7428202798
99996.94551145448
99983.94319250362
101654.54776257249
139216.29596941906
312279.6457556544
602297.147464478
827363.8608094943
906242.3227849979
892930.2627822622
838144.5772316261
760377.9022518425
668760.0776879027
100000.0
100000.0
100000.0
100000.0
100000.0
100000.0
100000.0
100000.0
100000.0
100000.0
100000.00000000006
99999.99999999994
99999.99999999993
99999.99999999974
99999.99999999977
99999.9999999998
99999.99999999945
99999.99999999981
99999.99999999822
100000.00000000445
99999.99999998425
100000.00000004497
99999.9999998712
100000.00000035283
99999.9999990389
100000.00000260951
99999.99999282547
100000.0000201662
99999.99994150923
100000.00017579517
99999.99945334949
100000.0017442701
99999.99437192906
100000.0179613791
99999.94533373068
100000.14453868158
99999.90535224948
99992.39781539222
100145.62769817298
109154.8187136567
189089.46028288006
407575.032312608
666944.5769777679
818955.0161809678
851025.1233823564
817583.3190224825
752942.0773547117
673310.723334945
100000.0
100000.0
100000.0
100000.0
100000.0
100000.0
100000.0
100000.0
100000.0
100000.0
100000.00000000009
100000.00000000004
99999.99999999999
99999.99999999994
99999.99999999975
99999.99999999975
99999.9999999997
99999.99999999975
99999.99999999939
100000.00000000127
99999.9999999938
100000.00000001852
99999.99999994133
100000.00000017045
99999.99999950969
100000.00000138191