# vtk DataFile Version 2.0
JuliaCFD
ASCII
DATASET UNSTRUCTURED_GRID

POINTS 32898 float
0.0 0.0 -0.05
0.0125 0.0 -0.05
0.025 0.0 -0.05
0.0375 0.0 -0.05
0.05 0.0 -0.05
0.0625 0.0 -0.05
0.075 0.0 -0.05
0.0875 0.0 -0.05
0.1 0.0 -0.05
0.1125 0.0 -0.05
0.125 0.0 -0.05
0.1375 0.0 -0.05
0.15 0.0 -0.05
0.1625 0.0 -0.05
0.175 0.0 -0.05
0.1875 0.0 -0.05
0.2 0.0 -0.05
0.2125 0.0 -0.05
0.225 0.0 -0.05
0.2375 0.0 -0.05
0.25 0.0 -0.05
0.2625 0.0 -0.05
0.275 0.0 -0.05
0.2875 0.0 -0.05
0.3 0.0 -0.05
0.3125 0.0 -0.05
0.325 0.0 -0.05
0.3375 0.0 -0.05
0.35 0.0 -0.05
0.3625 0.0 -0.05
0.375 0.0 -0.05
0.3875 0.0 -0.05
0.4 0.0 -0.05
0.4125 0.0 -0.05
0.425 0.0 -0.05
0.4375 0.0 -0.05
0.45 0.0 -0.05
0.4625 0.0 -0.05
0.475 0.0 -0.05
0.4875 0.0 -0.05
0.5 0.0 -0.05
0.5125 0.0 -0.05
0.525 0.0 -0.05
0.5375 0.0 -0.05
0.55 0.0 -0.05
0.5625 0.0 -0.05
0.575 0.0 -0.05
0.5875 0.0 -0.05
0.6 0.0 -0.05
0.0 0.0125 -0.05
0.0125 0.0125 -0.05
0.025 0.0125 -0.05
0.0375 0.0125 -0.05
0.05 0.0125 -0.05
0.0625 0.0125 -0.05
0.075 0.0125 -0.05
0.0875 0.0125 -0.05
0.1 0.0125 -0.05
0.1125 0.0125 -0.05
0.125 0.0125 -0.05
0.1375 0.0125 -0.05
0.15 0.0125 -0.05
0.1625 0.0125 -0.05
0.175 0.0125 -0.05
0.1875 0.0125 -0.05
0.2 0.0125 -0.05
0.2125 0.0125 -0.05
0.225 0.0125 -0.05
0.2375 0.0125 -0.05
0.25 0.0125 -0.05
0.2625 0.0125 -0.05
0.275 0.0125 -0.05
0.2875 0.0125 -0.05
0.3 0.0125 -0.05
0.3125 0.0125 -0.05
0.325 0.0125 -0.05
0.3375 0.0125 -0.05
0.35 0.0125 -0.05
0.3625 0.0125 -0.05
0.375 0.0125 -0.05
0.3875 0.0125 -0.05
0.4 0.0125 -0.05
0.4125 0.0125 -0.05
0.425 0.0125 -0.05
0.4375 0.0125 -0.05
0.45 0.0125 -0.05
0.4625 0.0125 -0.05
0.475 0.0125 -0.05
0.4875 0.0125 -0.05
0.5 0.0125 -0.05
0.5125 0.0125 -0.05
0.525 0.0125 -0.05
0.5375 0.0125 -0.05
0.55 0.0125 -0.05
0.5625 0.0125 -0.05
0.575 0.0125 -0.05
0.5875 0.0125 -0.05
0.6 0.0125 -0.05
0.0 0.025 -0.05
0.0125 0.025 -0.05
0.025 0.025 -0.05
0.0375 0.025 -0.05
0.05 0.025 -0.05
0.0625 0.025 -0.05
0.075 0.025 -0.05
0.0875 0.025 -0.05
0.1 0.025 -0.05
0.1125 0.025 -0.05
0.125 0.025 -0.05
0.1375 0.025 -0.05
0.15 0.025 -0.05
0.1625 0.025 -0.05
0.175 0.025 -0.05
0.1875 0.025 -0.05
0.2 0.025 -0.05
0.2125 0.025 -0.05
0.225 0.025 -0.05
0.2375 0.025 -0.05
0.25 0.025 -0.05
0.2625 0.025 -0.05
0.275 0.025 -0.05
0.2875 0.025 -0.05
0.3 0.025 -0.05
0.3125 0.025 -0.05
0.325 0.025 -0.05
0.3375 0.025 -0.05
0.35 0.025 -0.05
0.3625 0.025 -0.05
0.375 0.025 -0.05
0.3875 0.025 -0.05
0.4 0.025 -0.05
0.4125 0.025 -0.05
0.425 0.025 -0.05
0.4375 0.025 -0.05
0.45 0.025 -0.05
0.4625 0.025 -0.05
0.475 0.025 -0.05
0.4875 0.025 -0.05
0.5 0.025 -0.05
0.5125 0.025 -0.05
0.525 0.025 -0.05
0.5375 0.025 -0.05
0.55 0.025 -0.05
0.5625 0.025 -0.05
0.575 0.025 -0.05
0.5875 0.025 -0.05
0.6 0.025 -0.05
0.0 0.0375 -0.05
0.0125 0.0375 -0.05
0.025 0.0375 -0.05
0.0375 0.0375 -0.05
0.05 0.0375 -0.05
0.0625 0.0375 -0.05
0.075 0.0375 -0.05
0.0875 0.0375 -0.05
0.1 0.0375 -0.05
0.1125 0.0375 -0.05
0.125 0.0375 -0.05
0.1375 0.0375 -0.05
0.15 0.0375 -0.05
0.1625 0.0375 -0.05
0.175 0.0375 -0.05
0.1875 0.0375 -0.05
0.2 0.0375 -0.05
0.2125 0.0375 -0.05
0.225 0.0375 -0.05
0.2375 0.0375 -0.05
0.25 0.0375 -0.05
0.2625 0.0375 -0.05
0.275 0.0375 -0.05
0.2875 0.0375 -0.05
0.3 0.0375 -0.05
0.3125 0.0375 -0.05
0.325 0.0375 -0.05
0.3375 0.0375 -0.05
0.35 0.0375 -0.05
0.3625 0.0375 -0.05
0.375 0.0375 -0.05
0.3875 0.0375 -0.05
0.4 0.0375 -0.05
0.4125 0.0375 -0.05
0.425 0.0375 -0.05
0.4375 0.0375 -0.05
0.45 0.0375 -0.05
0.4625 0.0375 -0.05
0.475 0.0375 -0.05
0.4875 0.0375 -0.05
0.5 0.0375 -0.05
0.5125 0.0375 -0.05
0.525 0.0375 -0.05
0.5375 0.0375 -0.05
0.55 0.0375 -0.05
0.5625 0.0375 -0.05
0.575 0.0375 -0.05
0.5875 0.0375 -0.05
0.6 0.0375 -0.05
0.0 0.05 -0.05
0.0125 0.05 -0.05
0.025 0.05 -0.05
0.0375 0.05 -0.05
0.05 0.05 -0.05
0.0625 0.05 -0.05
0.075 0.05 -0.05
0.0875 0.05 -0.05
0.1 0.05 -0.05
0.1125 0.05 -0.05
0.125 0.05 -0.05
0.1375 0.05 -0.05
0.15 0.05 -0.05
0.1625 0.05 -0.05
0.175 0.05 -0.05
0.1875 0.05 -0.05
0.2 0.05 -0.05
0.2125 0.05 -0.05
0.225 0.05 -0.05
0.2375 0.05 -0.05
0.25 0.05 -0.05
0.2625 0.05 -0.05
0.275 0.05 -0.05
0.2875 0.05 -0.05
0.3 0.05 -0.05
0.3125 0.05 -0.05
0.325 0.05 -0.05
0.3375 0.05 -0.05
0.35 0.05 -0.05
0.3625 0.05 -0.05
0.375 0.05 -0.05
0.3875 0.05 -0.05
0.4 0.05 -0.05
0.4125 0.05 -0.05
0.425 0.05 -0.05
0.4375 0.05 -0.05
0.45 0.05 -0.05
0.4625 0.05 -0.05
0.475 0.05 -0.05
0.4875 0.05 -0.05
0.5 0.05 -0.05
0.5125 0.05 -0.05
0.525 0.05 -0.05
0.5375 0.05 -0.05
0.55 0.05 -0.05
0.5625 0.05 -0.05
0.575 0.05 -0.05
0.5875 0.05 -0.05
0.6 0.05 -0.05
0.0 0.0625 -0.05
0.0125 0.0625 -0.05
0.025 0.0625 -0.05
0.0375 0.0625 -0.05
0.05 0.0625 -0.05
0.0625 0.0625 -0.05
0.075 0.0625 -0.05
0.0875 0.0625 -0.05
0.1 0.0625 -0.05
0.1125 0.0625 -0.05
0.125 0.0625 -0.05
0.1375 0.0625 -0.05
0.15 0.0625 -0.05
0.1625 0.0625 -0.05
0.175 0.0625 -0.05
0.1875 0.0625 -0.05
0.2 0.0625 -0.05
0.2125 0.0625 -0.05
0.225 0.0625 -0.05
0.2375 0.0625 -0.05
0.25 0.0625 -0.05
0.2625 0.0625 -0.05
0.275 0.0625 -0.05
0.2875 0.0625 -0.05
0.3 0.0625 -0.05
0.3125 0.0625 -0.05
0.325 0.0625 -0.05
0.3375 0.0625 -0.05
0.35 0.0625 -0.05
0.3625 0.0625 -0.05
0.375 0.0625 -0.05
0.3875 0.0625 -0.05
0.4 0.0625 -0.05
0.4125 0.0625 -0.05
0.425 0.0625 -0.05
0.4375 0.0625 -0.05
0.45 0.0625 -0.05
0.4625 0.0625 -0.05
0.475 0.0625 -0.05
0.4875 0.0625 -0.05
0.5 0.0625 -0.05
0.5125 0.0625 -0.05
0.525 0.0625 -0.05
0.5375 0.0625 -0.05
0.55 0.0625 -0.05
0.5625 0.0625 -0.05
0.575 0.0625 -0.05
0.5875 0.0625 -0.05
0.6 0.0625 -0.05
0.0 0.075 -0.05
0.0125 0.075 -0.05
0.025 0.075 -0.05
0.0375 0.075 -0.05
0.05 0.075 -0.05
0.0625 0.075 -0.05
0.075 0.075 -0.05
0.0875 0.075 -0.05
0.1 0.075 -0.05
0.1125 0.075 -0.05
0.125 0.075 -0.05
0.1375 0.075 -0.05
0.15 0.075 -0.05
0.1625 0.075 -0.05
0.175 0.075 -0.05
0.1875 0.075 -0.05
0.2 0.075 -0.05
0.2125 0.075 -0.05
0.225 0.075 -0.05
0.2375 0.075 -0.05
0.25 0.075 -0.05
0.2625 0.075 -0.05
0.275 0.075 -0.05
0.2875 0.075 -0.05
0.3 0.075 -0.05
0.3125 0.075 -0.05
0.325 0.075 -0.05
0.3375 0.075 -0.05
0.35 0.075 -0.05
0.3625 0.075 -0.05
0.375 0.075 -0.05
0.3875 0.075 -0.05
0.4 0.075 -0.05
0.4125 0.075 -0.05
0.425 0.075 -0.05
0.4375 0.075 -0.05
0.45 0.075 -0.05
0.4625 0.075 -0.05
0.475 0.075 -0.05
0.4875 0.075 -0.05
0.5 0.075 -0.05
0.5125 0.075 -0.05
0.525 0.075 -0.05
0.5375 0.075 -0.05
0.55 0.075 -0.05
0.5625 0.075 -0.05
0.575 0.075 -0.05
0.5875 0.075 -0.05
0.6 0.075 -0.05
0.0 0.0875 -0.05
0.0125 0.0875 -0.05
0.025 0.0875 -0.05
0.0375 0.0875 -0.05
0.05 0.0875 -0.05
0.0625 0.0875 -0.05
0.075 0.0875 -0.05
0.0875 0.0875 -0.05
0.1 0.0875 -0.05
0.1125 0.0875 -0.05
0.125 0.0875 -0.05
0.1375 0.0875 -0.05
0.15 0.0875 -0.05
0.1625 0.0875 -0.05
0.175 0.0875 -0.05
0.1875 0.0875 -0.05
0.2 0.0875 -0.05
0.2125 0.0875 -0.05
0.225 0.0875 -0.05
0.2375 0.0875 -0.05
0.25 0.0875 -0.05
0.2625 0.0875 -0.05
0.275 0.0875 -0.05
0.2875 0.0875 -0.05
0.3 0.0875 -0.05
0.3125 0.0875 -0.05
0.325 0.0875 -0.05
0.3375 0.0875 -0.05
0.35 0.0875 -0.05
0.3625 0.0875 -0.05
0.375 0.0875 -0.05
0.3875 0.0875 -0.05
0.4 0.0875 -0.05
0.4125 0.0875 -0.05
0.425 0.0875 -0.05
0.4375 0.0875 -0.05
0.45 0.0875 -0.05
0.4625 0.0875 -0.05
0.475 0.0875 -0.05
0.4875 0.0875 -0.05
0.5 0.0875 -0.05
0.5125 0.0875 -0.05
0.525 0.0875 -0.05
0.5375 0.0875 -0.05
0.55 0.0875 -0.05
0.5625 0.0875 -0.05
0.575 0.0875 -0.05
0.5875 0.0875 -0.05
0.6 0.0875 -0.05
0.0 0.1 -0.05
0.0125 0.1 -0.05
0.025 0.1 -0.05
0.0375 0.1 -0.05
0.05 0.1 -0.05
0.0625 0.1 -0.05
0.075 0.1 -0.05
0.0875 0.1 -0.05
0.1 0.1 -0.05
0.1125 0.1 -0.05
0.125 0.1 -0.05
0.1375 0.1 -0.05
0.15 0.1 -0.05
0.1625 0.1 -0.05
0.175 0.1 -0.05
0.1875 0.1 -0.05
0.2 0.1 -0.05
0.2125 0.1 -0.05
0.225 0.1 -0.05
0.2375 0.1 -0.05
0.25 0.1 -0.05
0.2625 0.1 -0.05
0.275 0.1 -0.05
0.2875 0.1 -0.05
0.3 0.1 -0.05
0.3125 0.1 -0.05
0.325 0.1 -0.05
0.3375 0.1 -0.05
0.35 0.1 -0.05
0.3625 0.1 -0.05
0.375 0.1 -0.05
0.3875 0.1 -0.05
0.4 0.1 -0.05
0.4125 0.1 -0.05
0.425 0.1 -0.05
0.4375 0.1 -0.05
0.45 0.1 -0.05
0.4625 0.1 -0.05
0.475 0.1 -0.05
0.4875 0.1 -0.05
0.5 0.1 -0.05
0.5125 0.1 -0.05
0.525 0.1 -0.05
0.5375 0.1 -0.05
0.55 0.1 -0.05
0.5625 0.1 -0.05
0.575 0.1 -0.05
0.5875 0.1 -0.05
0.6 0.1 -0.05
0.0 0.1125 -0.05
0.0125 0.1125 -0.05
0.025 0.1125 -0.05
0.0375 0.1125 -0.05
0.05 0.1125 -0.05
0.0625 0.1125 -0.05
0.075 0.1125 -0.05
0.0875 0.1125 -0.05
0.1 0.1125 -0.05
0.1125 0.1125 -0.05
0.125 0.1125 -0.05
0.1375 0.1125 -0.05
0.15 0.1125 -0.05
0.1625 0.1125 -0.05
0.175 0.1125 -0.05
0.1875 0.1125 -0.05
0.2 0.1125 -0.05
0.2125 0.1125 -0.05
0.225 0.1125 -0.05
0.2375 0.1125 -0.05
0.25 0.1125 -0.05
0.2625 0.1125 -0.05
0.275 0.1125 -0.05
0.2875 0.1125 -0.05
0.3 0.1125 -0.05
0.3125 0.1125 -0.05
0.325 0.1125 -0.05
0.3375 0.1125 -0.05
0.35 0.1125 -0.05
0.3625 0.1125 -0.05
0.375 0.1125 -0.05
0.3875 0.1125 -0.05
0.4 0.1125 -0.05
0.4125 0.1125 -0.05
0.425 0.1125 -0.05
0.4375 0.1125 -0.05
0.45 0.1125 -0.05
0.4625 0.1125 -0.05
0.475 0.1125 -0.05
0.4875 0.1125 -0.05
0.5 0.1125 -0.05
0.5125 0.1125 -0.05
0.525 0.1125 -0.05
0.5375 0.1125 -0.05
0.55 0.1125 -0.05
0.5625 0.1125 -0.05
0.575 0.1125 -0.05
0.5875 0.1125 -0.05
0.6 0.1125 -0.05
0.0 0.125 -0.05
0.0125 0.125 -0.05
0.025 0.125 -0.05
0.0375 0.125 -0.05
0.05 0.125 -0.05
0.0625 0.125 -0.05
0.075 0.125 -0.05
0.0875 0.125 -0.05
0.1 0.125 -0.05
0.1125 0.125 -0.05
0.125 0.125 -0.05
0.1375 0.125 -0.05
0.15 0.125 -0.05
0.1625 0.125 -0.05
0.175 0.125 -0.05
0.1875 0.125 -0.05
0.2 0.125 -0.05
0.2125 0.125 -0.05
0.225 0.125 -0.05
0.2375 0.125 -0.05
0.25 0.125 -0.05
0.2625 0.125 -0.05
0.275 0.125 -0.05
0.2875 0.125 -0.05
0.3 0.125 -0.05
0.3125 0.125 -0.05
0.325 0.125 -0.05
0.3375 0.125 -0.05
0.35 0.125 -0.05
0.3625 0.125 -0.05
0.375 0.125 -0.05
0.3875 0.125 -0.05
0.4 0.125 -0.05
0.4125 0.125 -0.05
0.425 0.125 -0.05
0.4375 0.125 -0.05
0.45 0.125 -0.05
0.4625 0.125 -0.05
0.475 0.125 -0.05
0.4875 0.125 -0.05
0.5 0.125 -0.05
0.5125 0.125 -0.05
0.525 0.125 -0.05
0.5375 0.125 -0.05
0.55 0.125 -0.05
0.5625 0.125 -0.05
0.575 0.125 -0.05
0.5875 0.125 -0.05
0.6 0.125 -0.05
0.0 0.1375 -0.05
0.0125 0.1375 -0.05
0.025 0.1375 -0.05
0.0375 0.1375 -0.05
0.05 0.1375 -0.05
0.0625 0.1375 -0.05
0.075 0.1375 -0.05
0.0875 0.1375 -0.05
[...]
CELL_DATA 16128
SCALARS P float 1
LOOKUP_TABLE default
99999.9999999873
100000.00000003612
99999.99999989943
100000.00000028218
99999.99999921094
100000.00000220348
99999.99999385384
100000.00001712533
99999.99995233178
100000.00013255066
99999.99963178328
100000.00102187462
99999.99716685929
100000.00784721972
99999.97828600275
100000.06002551998
99999.83423374742
100000.45730308627
99998.73982879329
100003.46769482041
99990.48823429467
100025.57731607177
99942.8807037872
99831.17033864195
112955.78288118723
235701.62921235262
521545.76879867614
831762.3725315551
1.0018526184992539e6
1.051527611901854e6
1.0676808167985936e6
1.0796992118081723e6
1.0910664001092068e6
1.1019556896955147e6
1.1123449681147495e6
1.1222170242373112e6
1.1315571735692115e6
1.1403487872275128e6
1.1485682009676686e6
1.1561908102076536e6
1.163169960848542e6
1.1694990055822139e6
1.175031090933754e6
1.1800148480090841e6
1.1835180409895298e6
1.188102152073507e6
1.1859690623729147e6
1.200031298206674e6
99999.99999998767
100000.00000003504
99999.99999990208
100000.00000027436
99999.99999923316
100000.00000214242
99999.99999402149
100000.00001666587
99999.99995358806
100000.00012912443
99999.99964110383
100000.00099658998
99999.99723524574
100000.00766286695
99999.97878112063
100000.05870169052
99999.83775296545
100000.44802483283
99998.76397180658
100003.4062872363
99990.63759819434
100025.25348204815
99943.21290167794
99836.30107323057
112567.22315884854
234248.9517126758
520644.59585363424
834344.1587963991
1.008218249510727e6
1.0598114355927145e6
1.076776442347345e6
1.0892300041624217e6
1.1008800435086994e6
1.1119908524098457e6
1.1225835029269706e6
1.1326598217740797e6
1.1422116327692054e6
1.1512223214923192e6
1.1596647076920315e6
1.167508392479495e6
1.1746993605469018e6
1.1812218341569924e6
1.1869194526747083e6
1.1920289336784417e6
1.1956089999464802e6
1.2002208923878893e6
1.1980039814440398e6
1.21226974838812e6
99999.99999998855
100000.00000003258
99999.99999990879
100000.00000025526
99999.99999928517
100000.00000199849
99999.99999441748
100000.00001557897
99999.99995656579
100000.00012098499
99999.99966329538
100000.00093625364
99999.9973987902
100000.00722108972
99999.97996986071
100000.0555171421
99999.84624080123
100000.42553438051
99998.82316808694
100003.25164584047
99991.03775845935
100024.24453345464
99945.26196483061
99842.60843962093
111671.60626685878
229833.1504393645
513080.1806732493
827202.7176958668
1.0034941718169202e6
1.0562158374662483e6
1.0732359009895772e6
1.0855433838733833e6
1.0970255964011785e6
1.107959756780534e6
1.1183653525781976e6
1.1282437594837148e6
1.1375879333729076e6
1.146383426828103e6
1.1546060528776257e6
1.1622288439711928e6
1.1692025607374527e6
1.175515206319072e6
1.1810202751927336e6
1.185951358117776e6
1.1894000259493017e6
1.193877688940501e6
1.1915960996790533e6
1.20605793226684e6
99999.99999998974
100000.00000002889
99999.99999991871
100000.00000022784
99999.99999936143
100000.00000178786
99999.9999949985
100000.00001397802
99999.99996096775
100000.00010890466
99999.99969637858
100000.0008458528
99999.99764522041
100000.00655106058
99999.98178655784
100000.05060616648
99999.85947382152
100000.38999762981
99998.91826571958
100002.99810304884
99991.71011250181
100022.50041992315
99948.96529697046
99853.2248330351
110332.33374429528
222951.25126791978
501450.2935128462
817246.6492688729
998677.7750087173
1.0540511237611847e6
1.071616564269251e6
1.0840092794790028e6
1.095501979244552e6
1.1064236682657846e6
1.1168067428836012e6
1.1266601490134222e6
1.1359822791184715e6
1.1447627289738301e6
1.1529804833915462e6
1.1606106163906541e6
1.1676058386578e6
1.1739526136023905e6
1.1795077501090716e6
1.1844891601910482e6
1.1880115330265774e6
1.1925197855244076e6
1.1902602541184018e6
1.2050992186023912e6
99999.99999999134
100000.00000002456
99999.99999993129
100000.00000019338
99999.99999945716
100000.00000152264
99999.99999573345
100000.00001194514
99999.99996658208
100000.00009342084
99999.99973901357
100000.00072865293
99999.99796682692
100000.00567019105
99999.98419446209
100000.04403781463
99999.87735139686
100000.34145353164
99999.04974873994
100002.64300923742
99992.66447180866
100019.99050089534
99954.40263806307
99869.07572631289
108677.04288003774
213863.33819889516
485688.0036431283
803482.1172326811
991830.8401968826
1.0507955205298446e6
1.068970955107648e6
1.0813268875713374e6
1.0927027450834536e6
1.1034914750687813e6
1.1137330611779585e6
1.1234400018275718e6
1.1326138664542164e6
1.1412471922267117e6
1.1493218600638919e6
1.1568152969663227e6
1.1636832710426901e6
1.1699121127552218e6
1.1753655720339534e6
1.1802477854236232e6
1.1837081556765889e6
1.1881243244389836e6
1.1857969925178643e6
1.2010493519091518e6
99999.99999999313
100000.00000001941
99999.99999994527
100000.00000015394
99999.99999956656
100000.00000121798
99999.99999658063
100000.00000959136
99999.99997311467
100000.0000753086
99999.99978917338
100000.00058990301
99999.99835016146
100000.00461248432
99999.98710896188
100000.03601847499
99999.89938306417
100000.28102547266
99999.21519078626
100002.1910443455
99993.89428220902
100016.7105879254
99961.69722425978
99889.26679853618
106861.65801389594
202921.29486953147
465949.5223185294
785763.814541039
982936.1813195429
1.0467705165685886e6
1.0658369384439078e6
1.0781667139718425e6
1.089403990105038e6
1.1000363731010219e6
1.1101137477871059e6
1.119652643992564e6
1.128658482501695e6
1.137127536102235e6
1.1450454040726763e6
1.1523925865812132e6
1.1591285345023456e6
1.1652395600288317e6
1.170596584626224e6
1.175388462732239e6
1.178799889875179e6
1.1831397295542348e6
1.1807441826987097e6
1.1965310629616168e6
99999.99999999495
100000.00000001407
99999.99999996001
100000.00000011256
99999.99999968248
100000.0000008936
99999.99999748611
100000.00000706367
99999.99998016481
100000.00005565846
99999.99984390207
100000.00043758421
99999.99877377339
100000.00343529004
99999.99037768162
100000.02694994031
99999.92451939583
100000.21142060425
99999.4077250994
100001.65920939788
99995.35907785893
100012.74772534338
99970.7839436873
99911.2672948568
105049.67939757022
190555.58288413606
442455.5531438045
763835.4206280375
971622.2852603958
1.0417744743506826e6
1.06208310615003e6
1.0743897687272313e6
1.0854420355692126e6
1.0958658326619472e6
1.1057241151187092e6
1.1150370475761273e6
1.1238136052791264e6
1.132053763316385e6
1.1397470445253975e6
1.1468774538255446e6
1.1534088544259209e6
1.15932857805713e6
1.164516429588807e6
1.1691480904605065e6
1.1724473422181557e6
1.1766601611759288e6
1.174143381561668e6
1.1905748738798865e6
99999.99999999683
100000.0000000088
99999.99999997455
100000.00000007173
99999.99999979693
100000.00000057206
99999.99999838731
100000.00000453723
99999.99998724302
100000.00003583354
99999.99989941031
100000.00028221346
99999.99920853142
100000.00221911611
99999.99377873426
100000.01744175419
99999.951092508
100000.13718090326
99999.61505486764
100001.08055233343
99996.9709906202
100008.327176062
99981.2442251909
99931.5219586487
103392.85583189309
177269.92019112856
415523.7911185431
737455.7191078176
957487.8294638981
1.0356470902225791e6
1.0576878435628184e6
1.0700078861339425e6
1.0808379741624992e6
1.0910058175046751e6
1.1005935861113316e6
1.109625095648442e6
1.118112650991983e6
1.126059914121528e6
1.1334605618920713e6
1.1403026391699025e6
1.1465553017767575e6
1.152208331344004e6
1.1571522727919929e6
1.161552676292461e6
1.164675145106e6
1.1687112266315285e6
1.1660147850879508e6
1.1832359512203704e6
99999.99999999838
100000.00000000403
99999.99999998776
100000.0000000345
99999.99999990189
100000.00000027678
99999.99999921845
100000.00000219929
99999.99999381925
100000.00001733673
99999.99995143588
100000.00013587426
99999.99962019672
100000.00106091409
99999.99703782315
100000.00826914312
99999.97691428495
100000.06447271694
99999.8198349735
100000.50374568574
99998.59397126346
100003.82133853376
99992.23083674813
99946.71500155817
102011.49612780608
163629.19699755684
385590.6018113582
706412.1750993169
940048.4368253449
1.0281644604912971e6
1.0526022028008008e6
1.0650085920033383e6
1.075581220357253e6
1.085441191777313e6
1.094700069340313e6
1.1033854527985097e6
1.1115123183108426e6
1.1190874320225902e6
1.1261082150506075e6
1.1325666297771786e6
1.138437317541625e6
1.1437134139547106e6
1.1482974819377984e6
1.1523484247677878e6
1.155176942907259e6
1.1589336941063292e6
1.155947261193409e6
1.1741222913548497e6
99999.9999999998
100000.00000000003
99999.99999999891
100000.00000000313
99999.99999999024
100000.00000002806
99999.99999991935
100000.00000022215
99999.99999939576
100000.00000160436
99999.99999583319
100000.00001053742
99999.99997418621
100000.00006062635
99999.99986604077
100000.0002674043
99999.99956954192
100000.00027885941
100000.00188076246
99999.98710443887
100000.05978912275
99999.70923599786
100002.5255319321
99955.23981552273
100977.41917715599
150237.52428301377
353235.76047032874
670562.6509251074
918741.1862303927
1.0190319564830062e6
1.0467643830628836e6
1.0593857124814817e6
1.0696717075284293e6
1.0791689870379015e6
1.088035069871212e6
1.0963018670994965e6
1.1039859169337049e6
1.1110958758524382e6
1.1176317952387154e6
1.1235887791177537e6
1.1289466873981874e6
1.1337030297821339e6
1.1377744131458306e6
1.1413190586795644e6
1.143698412288589e6
1.1470415581309665e6
1.1436257034744057e6
1.1629782188068372e6
100000.00000000093
99999.99999999737
100000.00000000706
99999.9999999798
100000.00000005626
99999.99999984153
100000.00000044578
99999.99999873705
100000.00000358853
99999.99998976335
100000.00002928908
99999.99991595348
100000.00024177425
99999.99930296831
100000.00201331412
99999.99417539738
100000.01687345165
99999.95106471401
100000.14204750063
99999.58734218066
100001.20046877797
99996.48500274446
100010.75951260605
99958.0978238655
100304.00907865028
137702.3726288097
319201.46463211975
629888.0165277437
892933.3980254832
1.0078583603445559e6
1.0400853550603893e6
1.053132814259448e6
1.0631141705395333e6
1.0721915201255083e6
1.0805949998390614e6
1.0883621354060627e6
1.0955092112413272e6
1.1020443798122944e6
1.1079675208234729e6
1.1132737074781833e6
1.117944268663509e6
1.1219772097689193e6
1.1252981154639956e6
1.128061980084799e6
1.129679319833971e6
1.1322810379808052e6
1.1280772122718967e6
1.1487855290549838e6
100000.00000000156
99999.9999999953
100000.00000001247
99999.99999996484
100000.00000009798
99999.99999972421
100000.00000077563
99999.99999780864
100000.00000620021
99999.99998241273
100000.00004998707
99999.99985763841
100000.00040620012
99999.99883891131
100000.00332450346
99999.99046570549
100000.02738528069
99999.92122604002
100000.2269132308
99999.34547205282
100001.8906264748
99994.53191812542
100015.77056785818
99958.57808811302
99947.83101038093
126582.8108317731
284399.2906870739
584555.5113090505
861949.0002739606
994130.11306672
1.0324334005590654e6
1.0462406836491856e6
1.0559198358611313e6
1.0645198333638024e6
1.0723861389772191e6
1.0795649198070301e6
1.0860697613051257e6
1.0919047887123423e6
1.097065555319124e6
1.1015426409414976e6
1.1053145104732888e6
1.1083771788460363e6
1.1106649598276925e6
1.1123420071423852e6
1.112875803379239e6
1.1144481107746477e6
1.1091779128934816e6
1.1316664071772418e6
100000.00000000188
99999.99999999438
100000.00000001484
99999.99999995837
100000.00000011607
99999.99999967405
100000.00000091446
99999.99999742524
100000.00000725847
99999.99997949718
100000.0000580086
99999.99983559102
100000.00046674084
99999.99867278605
100000.00378015653
99999.98921606914
100000.03081337089
99999.91181484307
100000.25278300075
99999.27423539637
100002.08687309692
99993.99889981856
100016.99574259226
99960.69346720444
99823.98610536319
117323.97471197955
249897.74738545011
534987.8878637775
825117.8028559594
977186.4335423027
1.023611830820071e6
1.0386916590737122e6
1.0481062571077666e6
1.056175125600089e6
1.063426918669791e6
1.0699227252284617e6
1.0756701146486332e6
1.080663415836046e6
1.0848857470032547e6
1.088311741382341e6
1.090899895740359e6
1.092619891678179e6
1.093374739170142e6
1.0932757791471998e6
1.0917840299371036e6
1.0910625860880942e6
1.0831147801449148e6
1.106815544641233e6
100000.0000000018
99999.99999999466
100000.00000001465
99999.99999995875
100000.00000011442
99999.99999968053
100000.00000089263
99999.99999750007
100000.00000700753
99999.99998032428
100000.0000553171
99999.99984425558
100000.00043910513
99999.99876024175
100000.00350526815
99999.99007499497
100000.02814343522
99999.920076194
100000.22732470237
99999.352403281
100001.84753008229
99994.73105606672
100014.73935572633
99967.23432427084
99832.44872750588
110187.56799863571
216882.7569310354
481929.80478297465
781853.4596916795
956201.1058001983
1.0133285511498728e6
1.0304504025458228e6
1.0396963748268385e6
1.0471903642916377e6
1.0537511805529518e6
1.0594675343165009e6
1.0643378033288906e6
1.0683398428227757e6
1.0714353815591699e6
1.073572078730282e6
1.0746775721169757e6
1.0746836340493874e6
1.0734691953550607e6
1.0711323592776405e6
1.0672021145064812e6
1.0639659364539469e6
1.0533904396446464e6
1.079941795135718e6
100000.0000000016
99999.99999999521
100000.0000000128
99999.99999996416
100000.00000009855
99999.99999972615
100000.00000075815
99999.99999789444
100000.00000584943
99999.99998373244
100000.00004527431
99999.99987388849
100000.00035156138
99999.99901916708
100000.00273861775
99999.99234734783
100000.02140128639
99999.940100562
100000.1677919884
99999.52957171162
100001.31978921447
99996.30250130442
100010.13006212332
99978.2347090462
99887.07894416772
105197.92618504942
186583.53635370723
426498.77908599214
731763.5087299445
930180.1644939359
1.0011559203373401e6
1.0214488584126061e6
1.0307155950477157e6
1.0376107977023248e6
1.0434098668363504e6
1.0482530048668139e6
1.0521266821907754e6
1.0549828047075619e6
1.0567458917723375e6
1.0573098548949368e6
1.0565224650592934e6
1.0541939826831615e6
1.0500066391746802e6
1.0437141240715148e6
1.0342938247268032e6
1.0231465621944721e6
1.0008045841255368e6
1.0189183778576265e6
100000.0000000013
99999.99999999609
100000.00000000998
99999.99999997225
100000.0000000755
99999.99999979287
100000.00000056643
99999.99999844805
100000.0000042481
99999.99998837148
100000.00003181493
99999.99991300247
100000.00023771156
99999.99935108025
100000.00176941934
99999.99518203431
100000.01309675786
99999.96447081574
100000.09615100645
99999.74055115515
100000.69741419629
99998.13888143092
100004.79703442752
99991.0605165764
99935.39757694163
102129.06142669311
160157.0242072644
370204.17489299143
674790.1661230463
897989.877680641
986481.5608621041
1.0115628817240354e6
1.0211860342999952e6
1.0274937118753652e6
1.0324732484200817e6
1.0363601022116462e6
1.0391301510524726e6
1.040702010368213e6
1.0409503770478715e6
1.0397010273223391e6
1.036709789631362e6
1.0316630531902781e6
1.0241003264607323e6
1.013646459299517e6
999314.7072995137
982832.7283342367
955055.9196834366
978235.5496443663
100000.00000000068
99999.99999999724
100000.000000007
99999.99999998101
100000.00000005089
99999.99999986279
100000.00000036744
99999.99999901577
100000.00000262629
99999.99999301173
100000.00001852002
99999.99995114456
100000.00012813514
99999.99966631197
100000.00086126606
99999.99780217084
100000.00552583845
99999.98638190929
100000.03263160154
99999.92501614486
100000.1608069647
99999.70033420801
100000.31985830252
100001.98762190853
99961.14177163609
100552.91367395126
138528.3391829579
314914.520498374
611371.6253763082
858434.4561930706
968455.2960315396
1.0005775070943463e6
1.0111160007027359e6
1.0169055805336091e6
1.0210296239887876e6
1.0238950547408636e6
1.025475156037765e6
1.0256480720416381e6
1.024222504487274e6
1.0209253559855247e6
1.0153474810459703e6
1.006881257308486e6
994499.4748973531
976622.6694520302
949553.3705610362
908371.5766761022
829465.7520116934
700540.9651100544
100000.00000000047
99999.9999999982
100000.00000000422
99999.9999999887
100000.00000002947
99999.99999992317
100000.00000019783
99999.9999994926
100000.00000128486
99999.9999967879
100000.00000788445
99999.99998111142
100000.000043672
99999.99990443993
100000.00018976818
99999.99969601377
100000.00018411683
100000.00144902564
99999.99013408544
100000.04486913011
99999.82291707832
100000.65094475172
99997.69113451014
100008.20503186324
99971.22314518392
99948.14565394679
122202.73538268777
262752.98811608995
542598.6239402387
810403.222162986
945944.262434154
988137.8896433652
1.0004827890834073e6
1.0059167503127544e6
1.0091833285386282e6
1.0109896308082417e6
1.0113290238699036e6
1.0100381680743736e6
1.0068629748897752e6
1.0014270779922724e6
993163.6310013684
981211.8394213469
964138.0606096906
939715.0683695896
903387.9509510973
849202.251203223
757614.7186151668
620541.3090946331
100000.00000000016
99999.99999999908
100000.00000000196
99999.9999999944
100000.00000001352
99999.99999996735
100000.00000007663
99999.99999982674
100000.00000036666
99999.99999930598
100000.0000009939
99999.9999999204
99999.99999249133
100000.00004317763
99999.99981544653
100000.00070010393
99999.99751020115
100000.00850449233
99999.97173730764
100000.09208793589
99999.70433921438
100000.93875640987
99997.04513712879
100009.12459135341
99977.77701286617
99836.3833313275
111103.54910318027
215906.90113708342
470323.82505913085
753097.7525919989
917516.5842185165
973682.9827612377
989204.9886009987
994591.2437248391
997048.041892504
997792.7454102162
996882.5335898007
994128.9655241207
989224.1423340522
981715.424478822
970930.0917905319
955870.595414149
934954.7087868014
905855.5036166422
864324.2766894333
805414.4182546213
716006.9947426919
594651.8964494744
100000.00000000016
99999.99999999949
100000.00000000061
99999.99999999827
100000.00000000357
99999.9999999942
100000.00000000489
100000.00000001627
99999.99999986924
100000.00000060043
99999.9999976633
100000.00000836159
99999.99997152346
100000.00009380246
99999.99969829542
100000.00095300842
99999.9970323052
100000.00913443606
99999.97215920936
100000.0841366411
99999.74765582985
100000.7515056929
99997.78078409327
100006.35303716004
99986.77633207617
99887.21683319115
104529.14360066151
176348.58022312477
397172.65192706283
686331.6091187414
881485.651623368
956362.3642563648
977099.7338307382
982970.2383750625
984736.8329892468
984457.9838384876
982333.5949764972
978177.3895799232
971648.8086678593
962253.716507582
949277.4967916743
931699.1745376019
907987.4549219094
876033.9357503263
832360.4075355642
773407.4297215671
691152.4440054466
587216.6003091991
100000.00000000015
100000.0
100000.00000000003
100000.00000000013
99999.9999999983
100000.00000000674
99999.99999997346
100000.00000009152
99999.99999969488
100000.00000098147
99999.99999691221
100000.00000952909
99999.99997103144
100000.00008691578
99999.99974224018
100000.00075617016
99999.9978048467
100000.00630532265
99999.98208954094
100000.05025602476
99999.86095186631
100000.37817674842
99998.99669483848
100002.48371801862
99996.65866429685
99943.8171655281
101305.71947274658
145478.1122102081
326407.4542380634
610868.5680083932
836061.465246353
934947.3748846938
963820.3819417061
971047.2931174592
972349.4437826884
971130.9954704748
967869.0945613727
962417.3686305312
954430.5396653832
943407.5801006634
928646.6049054315
909185.2073629946
883659.3648222185
850311.3752558606
806506.374540602
749877.2201414004
675833.8379544645
586788.6245117267
99999.99999999993
99999.99999999999
99999.9999999996
100000.00000000095
99999.9999999967
100000.0000000101
99999.99999996801
100000.00000009628
99999.99999971162
100000.00000084777
99999.99999753576
100000.0000070667
99999.99997999147
100000.00005587887
99999.99984627565
100000.00041556268
99999.99890030721
100000.00283113675
99999.99298258666
100000.01642801795
99999.96513432302
100000.05972438824
99999.96187838937
99999.63417342218
100003.3944401157
99971.81853070774
100116.91582011944
123738.819386983
261609.68496791905
528721.3630038316
779656.9794929472
907765.9144816335
948771.4550861311
958732.4018534119
959956.9365977236
957939.6043988746
953650.9902927489
947044.1688506537
937798.0619438166
925434.6536014809