# vtk DataFile Version 2.0
JuliaCFD
ASCII
DATASET UNSTRUCTURED_GRID

POINTS 32898 float
0.0 0.0 -0.05
0.0125 0.0 -0.05
0.025 0.0 -0.05
0.0375 0.0 -0.05
0.05 0.0 -0.05
0.0625 0.0 -0.05
0.075 0.0 -0.05
0.0875 0.0 -0.05
0.1 0.0 -0.05
0.1125 0.0 -0.05
0.125 0.0 -0.05
0.1375 0.0 -0.05
0.15 0.0 -0.05
0.1625 0.0 -0.05
0.175 0.0 -0.05
0.1875 0.0 -0.05
0.2 0.0 -0.05
0.2125 0.0 -0.05
0.225 0.0 -0.05
0.2375 0.0 -0.05
0.25 0.0 -0.05
0.2625 0.0 -0.05
0.275 0.0 -0.05
0.2875 0.0 -0.05
0.3 0.0 -0.05
0.3125 0.0 -0.05
0.325 0.0 -0.05
0.3375 0.0 -0.05
0.35 0.0 -0.05
0.3625 0.0 -0.05
0.375 0.0 -0.05
0.3875 0.0 -0.05
0.4 0.0 -0.05
0.4125 0.0 -0.05
0.425 0.0 -0.05
0.4375 0.0 -0.05
0.45 0.0 -0.05
0.4625 0.0 -0.05
0.475 0.0 -0.05
0.4875 0.0 -0.05
0.5 0.0 -0.05
0.5125 0.0 -0.05
0.525 0.0 -0.05
0.5375 0.0 -0.05
0.55 0.0 -0.05
0.5625 0.0 -0.05
0.575 0.0 -0.05
0.5875 0.0 -0.05
0.6 0.0 -0.05
0.0 0.0125 -0.05
0.0125 0.0125 -0.05
0.025 0.0125 -0.05
0.0375 0.0125 -0.05
0.05 0.0125 -0.05
0.0625 0.0125 -0.05
0.075 0.0125 -0.05
0.0875 0.0125 -0.05
0.1 0.0125 -0.05
0.1125 0.0125 -0.05
0.125 0.0125 -0.05
0.1375 0.0125 -0.05
0.15 0.0125 -0.05
0.1625 0.0125 -0.05
0.175 0.0125 -0.05
0.1875 0.0125 -0.05
0.2 0.0125 -0.05
0.2125 0.0125 -0.05
0.225 0.0125 -0.05
0.2375 0.0125 -0.05
0.25 0.0125 -0.05
0.2625 0.0125 -0.05
0.275 0.0125 -0.05
0.2875 0.0125 -0.05
0.3 0.0125 -0.05
0.3125 0.0125 -0.05
0.325 0.0125 -0.05
0.3375 0.0125 -0.05
0.35 0.0125 -0.05
0.3625 0.0125 -0.05
0.375 0.0125 -0.05
0.3875 0.0125 -0.05
0.4 0.0125 -0.05
0.4125 0.0125 -0.05
0.425 0.0125 -0.05
0.4375 0.0125 -0.05
0.45 0.0125 -0.05
0.4625 0.0125 -0.05
0.475 0.0125 -0.05
0.4875 0.0125 -0.05
0.5 0.0125 -0.05
0.5125 0.0125 -0.05
0.525 0.0125 -0.05
0.5375 0.0125 -0.05
0.55 0.0125 -0.05
0.5625 0.0125 -0.05
0.575 0.0125 -0.05
0.5875 0.0125 -0.05
0.6 0.0125 -0.05
0.0 0.025 -0.05
0.0125 0.025 -0.05
0.025 0.025 -0.05
0.0375 0.025 -0.05
0.05 0.025 -0.05
0.0625 0.025 -0.05
0.075 0.025 -0.05
0.0875 0.025 -0.05
0.1 0.025 -0.05
0.1125 0.025 -0.05
0.125 0.025 -0.05
0.1375 0.025 -0.05
0.15 0.025 -0.05
0.1625 0.025 -0.05
0.175 0.025 -0.05
0.1875 0.025 -0.05
0.2 0.025 -0.05
0.2125 0.025 -0.05
0.225 0.025 -0.05
0.2375 0.025 -0.05
0.25 0.025 -0.05
0.2625 0.025 -0.05
0.275 0.025 -0.05
0.2875 0.025 -0.05
0.3 0.025 -0.05
0.3125 0.025 -0.05
0.325 0.025 -0.05
0.3375 0.025 -0.05
0.35 0.025 -0.05
0.3625 0.025 -0.05
0.375 0.025 -0.05
0.3875 0.025 -0.05
0.4 0.025 -0.05
0.4125 0.025 -0.05
0.425 0.025 -0.05
0.4375 0.025 -0.05
0.45 0.025 -0.05
0.4625 0.025 -0.05
0.475 0.025 -0.05
0.4875 0.025 -0.05
0.5 0.025 -0.05
0.5125 0.025 -0.05
0.525 0.025 -0.05
0.5375 0.025 -0.05
0.55 0.025 -0.05
0.5625 0.025 -0.05
0.575 0.025 -0.05
0.5875 0.025 -0.05
0.6 0.025 -0.05
0.0 0.0375 -0.05
0.0125 0.0375 -0.05
0.025 0.0375 -0.05
0.0375 0.0375 -0.05
0.05 0.0375 -0.05
0.0625 0.0375 -0.05
0.075 0.0375 -0.05
0.0875 0.0375 -0.05
0.1 0.0375 -0.05
0.1125 0.0375 -0.05
0.125 0.0375 -0.05
0.1375 0.0375 -0.05
0.15 0.0375 -0.05
0.1625 0.0375 -0.05
0.175 0.0375 -0.05
0.1875 0.0375 -0.05
0.2 0.0375 -0.05
0.2125 0.0375 -0.05
0.225 0.0375 -0.05
0.2375 0.0375 -0.05
0.25 0.0375 -0.05
0.2625 0.0375 -0.05
0.275 0.0375 -0.05
0.2875 0.0375 -0.05
0.3 0.0375 -0.05
0.3125 0.0375 -0.05
0.325 0.0375 -0.05
0.3375 0.0375 -0.05
0.35 0.0375 -0.05
0.3625 0.0375 -0.05
0.375 0.0375 -0.05
0.3875 0.0375 -0.05
0.4 0.0375 -0.05
0.4125 0.0375 -0.05
0.425 0.0375 -0.05
0.4375 0.0375 -0.05
0.45 0.0375 -0.05
0.4625 0.0375 -0.05
0.475 0.0375 -0.05
0.4875 0.0375 -0.05
0.5 0.0375 -0.05
0.5125 0.0375 -0.05
0.525 0.0375 -0.05
0.5375 0.0375 -0.05
0.55 0.0375 -0.05
0.5625 0.0375 -0.05
0.575 0.0375 -0.05
0.5875 0.0375 -0.05
0.6 0.0375 -0.05
0.0 0.05 -0.05
0.0125 0.05 -0.05
0.025 0.05 -0.05
0.0375 0.05 -0.05
0.05 0.05 -0.05
0.0625 0.05 -0.05
0.075 0.05 -0.05
0.0875 0.05 -0.05
0.1 0.05 -0.05
0.1125 0.05 -0.05
0.125 0.05 -0.05
0.1375 0.05 -0.05
0.15 0.05 -0.05
0.1625 0.05 -0.05
0.175 0.05 -0.05
0.1875 0.05 -0.05
0.2 0.05 -0.05
0.2125 0.05 -0.05
0.225 0.05 -0.05
0.2375 0.05 -0.05
0.25 0.05 -0.05
0.2625 0.05 -0.05
0.275 0.05 -0.05
0.2875 0.05 -0.05
0.3 0.05 -0.05
0.3125 0.05 -0.05
0.325 0.05 -0.05
0.3375 0.05 -0.05
0.35 0.05 -0.05
0.3625 0.05 -0.05
0.375 0.05 -0.05
0.3875 0.05 -0.05
0.4 0.05 -0.05
0.4125 0.05 -0.05
0.425 0.05 -0.05
0.4375 0.05 -0.05
0.45 0.05 -0.05
0.4625 0.05 -0.05
0.475 0.05 -0.05
0.4875 0.05 -0.05
0.5 0.05 -0.05
0.5125 0.05 -0.05
0.525 0.05 -0.05
0.5375 0.05 -0.05
0.55 0.05 -0.05
0.5625 0.05 -0.05
0.575 0.05 -0.05
0.5875 0.05 -0.05
0.6 0.05 -0.05
0.0 0.0625 -0.05
0.0125 0.0625 -0.05
0.025 0.0625 -0.05
0.0375 0.0625 -0.05
0.05 0.0625 -0.05
0.0625 0.0625 -0.05
0.075 0.0625 -0.05
0.0875 0.0625 -0.05
0.1 0.0625 -0.05
0.1125 0.0625 -0.05
0.125 0.0625 -0.05
0.1375 0.0625 -0.05
0.15 0.0625 -0.05
0.1625 0.0625 -0.05
0.175 0.0625 -0.05
0.1875 0.0625 -0.05
0.2 0.0625 -0.05
0.2125 0.0625 -0.05
0.225 0.0625 -0.05
0.2375 0.0625 -0.05
0.25 0.0625 -0.05
0.2625 0.0625 -0.05
0.275 0.0625 -0.05
0.2875 0.0625 -0.05
0.3 0.0625 -0.05
0.3125 0.0625 -0.05
0.325 0.0625 -0.05
0.3375 0.0625 -0.05
0.35 0.0625 -0.05
0.3625 0.0625 -0.05
0.375 0.0625 -0.05
0.3875 0.0625 -0.05
0.4 0.0625 -0.05
0.4125 0.0625 -0.05
0.425 0.0625 -0.05
0.4375 0.0625 -0.05
0.45 0.0625 -0.05
0.4625 0.0625 -0.05
0.475 0.0625 -0.05
0.4875 0.0625 -0.05
0.5 0.0625 -0.05
0.5125 0.0625 -0.05
0.525 0.0625 -0.05
0.5375 0.0625 -0.05
0.55 0.0625 -0.05
0.5625 0.0625 -0.05
0.575 0.0625 -0.05
0.5875 0.0625 -0.05
0.6 0.0625 -0.05
0.0 0.075 -0.05
0.0125 0.075 -0.05
0.025 0.075 -0.05
0.0375 0.075 -0.05
0.05 0.075 -0.05
0.0625 0.075 -0.05
0.075 0.075 -0.05
0.0875 0.075 -0.05
0.1 0.075 -0.05
0.1125 0.075 -0.05
0.125 0.075 -0.05
0.1375 0.075 -0.05
0.15 0.075 -0.05
0.1625 0.075 -0.05
0.175 0.075 -0.05
0.1875 0.075 -0.05
0.2 0.075 -0.05
0.2125 0.075 -0.05
0.225 0.075 -0.05
0.2375 0.075 -0.05
0.25 0.075 -0.05
0.2625 0.075 -0.05
0.275 0.075 -0.05
0.2875 0.075 -0.05
0.3 0.075 -0.05
0.3125 0.075 -0.05
0.325 0.075 -0.05
0.3375 0.075 -0.05
0.35 0.075 -0.05
0.3625 0.075 -0.05
0.375 0.075 -0.05
0.3875 0.075 -0.05
0.4 0.075 -0.05
0.4125 0.075 -0.05
0.425 0.075 -0.05
0.4375 0.075 -0.05
0.45 0.075 -0.05
0.4625 0.075 -0.05
0.475 0.075 -0.05
0.4875 0.075 -0.05
0.5 0.075 -0.05
0.5125 0.075 -0.05
0.525 0.075 -0.05
0.5375 0.075 -0.05
0.55 0.075 -0.05
0.5625 0.075 -0.05
0.575 0.075 -0.05
0.5875 0.075 -0.05
0.6 0.075 -0.05
0.0 0.0875 -0.05
0.0125 0.0875 -0.05
0.025 0.0875 -0.05
0.0375 0.0875 -0.05
0.05 0.0875 -0.05
0.0625 0.0875 -0.05
0.075 0.0875 -0.05
0.0875 0.0875 -0.05
0.1 0.0875 -0.05
0.1125 0.0875 -0.05
0.125 0.0875 -0.05
0.1375 0.0875 -0.05
0.15 0.0875 -0.05
0.1625 0.0875 -0.05
0.175 0.0875 -0.05
0.1875 0.0875 -0.05
0.2 0.0875 -0.05
0.2125 0.0875 -0.05
0.225 0.0875 -0.05
0.2375 0.0875 -0.05
0.25 0.0875 -0.05
0.2625 0.0875 -0.05
0.275 0.0875 -0.05
0.2875 0.0875 -0.05
0.3 0.0875 -0.05
0.3125 0.0875 -0.05
0.325 0.0875 -0.05
0.3375 0.0875 -0.05
0.35 0.0875 -0.05
0.3625 0.0875 -0.05
0.375 0.0875 -0.05
0.3875 0.0875 -0.05
0.4 0.0875 -0.05
0.4125 0.0875 -0.05
0.425 0.0875 -0.05
0.4375 0.0875 -0.05
0.45 0.0875 -0.05
0.4625 0.0875 -0.05
0.475 0.0875 -0.05
0.4875 0.0875 -0.05
0.5 0.0875 -0.05
0.5125 0.0875 -0.05
0.525 0.0875 -0.05
0.5375 0.0875 -0.05
0.55 0.0875 -0.05
0.5625 0.0875 -0.05
0.575 0.0875 -0.05
0.5875 0.0875 -0.05
0.6 0.0875 -0.05
0.0 0.1 -0.05
0.0125 0.1 -0.05
0.025 0.1 -0.05
0.0375 0.1 -0.05
0.05 0.1 -0.05
0.0625 0.1 -0.05
0.075 0.1 -0.05
0.0875 0.1 -0.05
0.1 0.1 -0.05
0.1125 0.1 -0.05
0.125 0.1 -0.05
0.1375 0.1 -0.05
0.15 0.1 -0.05
0.1625 0.1 -0.05
0.175 0.1 -0.05
0.1875 0.1 -0.05
0.2 0.1 -0.05
0.2125 0.1 -0.05
0.225 0.1 -0.05
0.2375 0.1 -0.05
0.25 0.1 -0.05
0.2625 0.1 -0.05
0.275 0.1 -0.05
0.2875 0.1 -0.05
0.3 0.1 -0.05
0.3125 0.1 -0.05
0.325 0.1 -0.05
0.3375 0.1 -0.05
0.35 0.1 -0.05
0.3625 0.1 -0.05
0.375 0.1 -0.05
0.3875 0.1 -0.05
0.4 0.1 -0.05
0.4125 0.1 -0.05
0.425 0.1 -0.05
0.4375 0.1 -0.05
0.45 0.1 -0.05
0.4625 0.1 -0.05
0.475 0.1 -0.05
0.4875 0.1 -0.05
0.5 0.1 -0.05
0.5125 0.1 -0.05
0.525 0.1 -0.05
0.5375 0.1 -0.05
0.55 0.1 -0.05
0.5625 0.1 -0.05
0.575 0.1 -0.05
0.5875 0.1 -0.05
0.6 0.1 -0.05
0.0 0.1125 -0.05
0.0125 0.1125 -0.05
0.025 0.1125 -0.05
0.0375 0.1125 -0.05
0.05 0.1125 -0.05
0.0625 0.1125 -0.05
0.075 0.1125 -0.05
0.0875 0.1125 -0.05
0.1 0.1125 -0.05
0.1125 0.1125 -0.05
0.125 0.1125 -0.05
0.1375 0.1125 -0.05
0.15 0.1125 -0.05
0.1625 0.1125 -0.05
0.175 0.1125 -0.05
0.1875 0.1125 -0.05
0.2 0.1125 -0.05
0.2125 0.1125 -0.05
0.225 0.1125 -0.05
0.2375 0.1125 -0.05
0.25 0.1125 -0.05
0.2625 0.1125 -0.05
0.275 0.1125 -0.05
0.2875 0.1125 -0.05
0.3 0.1125 -0.05
0.3125 0.1125 -0.05
0.325 0.1125 -0.05
0.3375 0.1125 -0.05
0.35 0.1125 -0.05
0.3625 0.1125 -0.05
0.375 0.1125 -0.05
0.3875 0.1125 -0.05
0.4 0.1125 -0.05
0.4125 0.1125 -0.05
0.425 0.1125 -0.05
0.4375 0.1125 -0.05
0.45 0.1125 -0.05
0.4625 0.1125 -0.05
0.475 0.1125 -0.05
0.4875 0.1125 -0.05
0.5 0.1125 -0.05
0.5125 0.1125 -0.05
0.525 0.1125 -0.05
0.5375 0.1125 -0.05
0.55 0.1125 -0.05
0.5625 0.1125 -0.05
0.575 0.1125 -0.05
0.5875 0.1125 -0.05
0.6 0.1125 -0.05
0.0 0.125 -0.05
0.0125 0.125 -0.05
0.025 0.125 -0.05
0.0375 0.125 -0.05
0.05 0.125 -0.05
0.0625 0.125 -0.05
0.075 0.125 -0.05
0.0875 0.125 -0.05
0.1 0.125 -0.05
0.1125 0.125 -0.05
0.125 0.125 -0.05
0.1375 0.125 -0.05
0.15 0.125 -0.05
0.1625 0.125 -0.05
0.175 0.125 -0.05
0.1875 0.125 -0.05
0.2 0.125 -0.05
0.2125 0.125 -0.05
0.225 0.125 -0.05
0.2375 0.125 -0.05
0.25 0.125 -0.05
0.2625 0.125 -0.05
0.275 0.125 -0.05
0.2875 0.125 -0.05
0.3 0.125 -0.05
0.3125 0.125 -0.05
0.325 0.125 -0.05
0.3375 0.125 -0.05
0.35 0.125 -0.05
0.3625 0.125 -0.05
0.375 0.125 -0.05
0.3875 0.125 -0.05
0.4 0.125 -0.05
0.4125 0.125 -0.05
0.425 0.125 -0.05
0.4375 0.125 -0.05
0.45 0.125 -0.05
0.4625 0.125 -0.05
0.475 0.125 -0.05
0.4875 0.125 -0.05
0.5 0.125 -0.05
0.5125 0.125 -0.05
0.525 0.125 -0.05
0.5375 0.125 -0.05
0.55 0.125 -0.05
0.5625 0.125 -0.05
0.575 0.125 -0.05
0.5875 0.125 -0.05
0.6 0.125 -0.05
0.0 0.1375 -0.05
0.0125 0.1375 -0.05
0.025 0.1375 -0.05
0.0375 0.1375 -0.05
0.05 0.1375 -0.05
0.0625 0.1375 -0.05
0.075 0.1375 -0.05
0.0875 0.1375 -0.05
[...]
CELL_DATA 16128
SCALARS P float 1
LOOKUP_TABLE default
100000.00000005207
99999.9999998565
100000.00000039025
99999.99999893318
100000.00000290935
99999.99999205844
100000.00002166763
99999.99994087835
100000.00016128813
99999.99956003559
100000.00119997034
99999.99672763488
100000.00892240954
99999.97567660385
100000.06629437112
99999.81935563419
100000.49208934413
99998.66003229677
100003.64610201542
99990.10584650993
100026.30670050117
99942.5968021303
99814.05819473574
114388.27401287363
239966.19922561292
523454.1820544237
825128.0439452579
988757.5549573826
1.0374301492828823e6
1.05372099154561e6
1.0656637394283633e6
1.0769285458686925e6
1.0877604506948527e6
1.0981477519641293e6
1.1080761530832674e6
1.1175338215204496e6
1.1265062745158456e6
1.134974518849122e6
1.142911389049935e6
1.1502882510286397e6
1.1570545727028872e6
1.1631994971191767e6
1.168574342680937e6
1.1734224837790376e6
1.1768200383018719e6
1.1813086075862225e6
1.1791418236237497e6
1.193120722380912e6
100000.00000005118
99999.99999985936
100000.0000003827
99999.99999895359
100000.00000285397
99999.99999220848
100000.00002126112
99999.99994197807
100000.000158318
99999.99956804923
100000.0011783763
99999.9967857567
100000.0087661644
99999.97609602487
100000.0651707788
99999.82235527552
100000.48413265542
99998.68087615492
100003.59281842648
99990.23526800153
100026.03055839916
99942.86333718168
99817.93096448119
113988.78677522996
238568.866889241
522665.2481845898
827688.834597626
994861.8618309863
1.0453285424215458e6
1.0623899667452527e6
1.074746876914608e6
1.0862829781180362e6
1.0973303849895778e6
1.107918611006866e6
1.118051820044095e6
1.127724940082099e6
1.1369242432646782e6
1.145628230632842e6
1.1538051914810855e6
1.1614202961001026e6
1.1684154664750744e6
1.174770551651952e6
1.1803270960346593e6
1.1853161462663144e6
1.1888042004539273e6
1.1933317602974693e6
1.191090394155866e6
1.2052742349326261e6
100000.00000004869
99999.99999986589
100000.00000036495
99999.99999900234
100000.000002722
99999.99999256659
100000.00002029125
99999.99994460253
100000.0001512289
99999.99958716294
100000.00112695184
99999.99692377388
100000.00839680765
99999.97708112508
100000.06255413106
99999.82927176701
100000.4659568895
99998.72831587966
100003.46993724216
99990.55058616326
100025.24064450279
99944.46316929297
99822.32483565388
113064.76633855156
234281.68415646566
515499.0239776723
821030.1450097304
990464.4237415384
1.041960834350859e6
1.0590813429156498e6
1.0713062689829222e6
1.0826854484431057e6
1.0935654386852183e6
1.1039747524496503e6
1.1139170533347817e6
1.123388059061763e6
1.1323757245655728e6
1.1408608277369165e6
1.1488145519266764e6
1.1562053341531726e6
1.1629796982072757e6
1.169121160940737e6
1.1744810038858212e6
1.179287299826612e6
1.1826393419496787e6
1.1870285490843067e6
1.184719411985783e6
1.199094682036651e6
100000.00000004495
99999.99999987586
100000.00000033826
99999.99999907498
100000.00000252409
99999.9999931056
100000.00001882626
99999.9999485805
100000.00014044279
99999.99961636984
100000.00104799001
99999.99713687893
100000.0078227796
99999.97862409143
100000.05841616813
99999.84034218214
100000.43641321747
99998.80696953528
100003.2610132393
99991.1035069511
100023.80559495756
99947.51448478052
99830.5166913735
111675.93719704956
227590.3497987112
504480.74695334694
811760.8672896074
985985.0163725629
1.0399030738574726e6
1.0575372310132154e6
1.0698430649194596e6
1.0812271309249736e6
1.0920885631290886e6
1.1024687034819017e6
1.1123782948700818e6
1.1218181039218483e6
1.1307799626705227e6
1.139247714291742e6
1.1471950943670198e6
1.1545921820699202e6
1.1613871691739752e6
1.1675618710707184e6
1.1729707127270945e6
1.1778262104899052e6
1.1812505690947701e6
1.1856693283094822e6
1.183381678553759e6
1.1981310201989894e6
100000.00000004056
99999.99999988834
100000.00000030371
99999.99999916976
100000.00000226527
99999.9999938126
100000.00001689729
99999.99995384185
100000.00012610448
99999.9996554104
100000.00094179339
99999.99742545038
100000.0070395102
99999.98074759007
100000.05266643844
99999.85589015298
100000.39442652624
99998.92019312156
100002.95619207108
99991.92115292384
100021.65726716295
99952.13224182691
99844.33280746057
109945.02562474651
218732.2641358268
489538.5051933936
798957.9138836156
979642.0999222976
1.0368358237510037e6
1.0550462051096205e6
1.0673234627031453e6
1.0785956238110068e6
1.089327431797688e6
1.0995684795226005e6
1.109332781449388e6
1.1186239020828158e6
1.1274363437073356e6
1.1357564982550363e6
1.143560687390359e6
1.1508210979799407e6
1.1574887615645104e6
1.1635452185418895e6
1.1688516350565334e6
1.1736068744395673e6
1.1769675693932578e6
1.1812927926517946e6
1.1789360434195655e6
1.194095620482132e6
100000.0000000351
99999.99999990336
100000.00000026221
99999.99999928323
100000.00000195425
99999.99999466531
100000.00001455957
99999.99996024795
100000.00010855727
99999.99970345413
100000.00081031478
99999.99778507739
100000.0060563901
99999.98343353833
100000.04533309619
99999.87589764096
100000.33988399387
99999.06874562398
100002.55209899896
99993.01684386148
100018.74544678362
99958.50271905737
99863.85168809663
108023.71555654285
208027.90752225067
470803.93545686366
782484.8202194266
971424.4916062258
1.0330503594678162e6
1.0520924576362139e6
1.0643509766805265e6
1.07548902195574e6
1.0860668727414075e6
1.0961449402543667e6
1.1057408952280355e6
1.1148616253177586e6
1.1235049806158636e6
1.1316606441766124e6
1.1393082812055342e6
1.1464228444872159e6
1.1529587743493805e6
1.1588974048880397e6
1.1641068349876883e6
1.1687707654095932e6
1.1720808358443987e6
1.1763282089989823e6
1.1739019288884494e6
1.189592649891174e6
100000.00000002893
99999.99999992033
100000.00000021627
99999.9999994106
100000.00000160465
99999.99999562824
100000.00001190974
99999.99996754105
100000.00008848774
99999.99975868079
100000.00065835542
99999.99820316186
100000.00490625833
99999.9865970162
100000.03663351251
99999.8998158157
100000.2741445108
99999.2493610861
100002.05620871909
99994.37503310516
100015.0941868172
99966.68595444583
99887.26147078045
106073.79658302752
195870.22529240354
448464.5372565292
762102.1452374331
961004.222846572
1.0283705851598842e6
1.0485611725632639e6
1.0608055859630762e6
1.0717667849279721e6
1.082141936756976e6
1.0920057918980217e6
1.101379329592646e6
1.1102723913837844e6
1.1186860257649098e6
1.1266132490053426e6
1.1340372981370061e6
1.1409363122783718e6
1.1472688373683183e6
1.1530169866538877e6
1.1580574425569223e6
1.1625607812948271e6
1.1657574073841013e6
1.1698763874001459e6
1.1673278370373289e6
1.1836590713575121e6
100000.0000000227
99999.99999993804
100000.00000016771
99999.99999954477
100000.00000123453
99999.9999966503
100000.00000908847
99999.99997533308
100000.00006696234
99999.99981816116
100000.00049395474
99999.9986576789
100000.00364933712
99999.990073768
100000.02701427635
99999.92643533807
100000.20046616561
99999.45331870962
100001.49166732046
99995.9350913414
100010.85513765017
99976.44552299219
99911.18625400502
104249.72144387687
182720.69394414473
422792.0079442636
737579.421705877
948027.1177994777
1.0226582021948075e6
1.0444338586359547e6
1.0566990760676495e6
1.0674496734195198e6
1.0775782322276607e6
1.0871801921564415e6
1.0962799286007416e6
1.1048899372708243e6
1.113014307466144e6
1.1206494146177822e6
1.127782304450675e6
1.1343948144997754e6
1.1404504349747717e6
1.145933417846085e6
1.150730818270367e6
1.1550030213700582e6
1.1580219319425693e6
1.1619626931481934e6
1.1592339211082708e6
1.176349671877492e6
100000.00000001633
99999.99999995562
100000.00000011973
99999.999999678
100000.00000086658
99999.99999766811
100000.00000627233
99999.99998312931
100000.0000453687
99999.9998780041
100000.00032801782
99999.99911806826
100000.00237123585
99999.99362411101
100000.01714589875
99999.95388242618
100000.12407843873
99999.66604686882
100000.8989915646
99997.58481350225
100006.33126781382
99987.14123530444
99931.768897392
102680.32724563756
169100.1494160144
394161.60998718406
708705.3588492715
932065.225939508
1.0157218405258751e6
1.0396692007631373e6
1.052022768259851e6
1.0625318209721742e6
1.072366890583013e6
1.0816541919131076e6
1.09042178619765e6
1.0986841743028827e6
1.1064478347028613e6
1.113711956292434e6
1.120467003916576e6
1.1266983859284192e6
1.1323747112129345e6
1.137483207337332e6
1.141922533830585e6
1.145846221429738e6
1.148570891293771e6
1.1522308823741328e6
1.149212095640581e6
1.1672752773384852e6
100000.00000001064
99999.99999997178
100000.00000007503
99999.99999980157
100000.00000052503
99999.99999861361
100000.00000365476
99999.99999038197
100000.00002526099
99999.99993379522
100000.000173096
99999.9995486194
100000.00117361339
99999.99695850047
100000.00785340797
99999.97980545982
100000.05168587436
99999.86842789999
100000.33268445336
99999.16902855152
100001.95706397979
99997.72865534537
99946.19949032685
101451.965974976
155571.65553477968
363075.0240566793
675322.5829530479
912618.8990349057
1.0073112647500889e6
1.034215689568978e6
1.0467735953117759e6
1.057016582794595e6
1.066509739919513e6
1.075425860895091e6
1.0837974505181613e6
1.0916400199995877e6
1.0989612425454098e6
1.105761923841844e6
1.1120348531630065e6
1.117768232586889e6
1.12293552119738e6
1.1275278573954082e6
1.1314575095694077e6
1.13487687376133e6
1.1371531711728226e6
1.1403984996267306e6
1.1369498775223992e6
1.1561818810509567e6
100000.00000000573
99999.99999998593
100000.0000000366
99999.99999990786
100000.0000002319
99999.9999994239
100000.00000141608
99999.99999657352
100000.00000812313
99999.99998127567
100000.00004142796
99999.9999141174
100000.00015793221
99999.99978422553
99999.99998231261
100000.001759171
99999.9903685926
100000.03993904621
99999.8522855594
100000.51499116009
99998.22867866982
100006.90672010947
99953.9883784793
100596.78281663309
142711.83246581347
330179.2149011615
637372.0243429785
889121.6396653237
997095.4287282454
1.0279998293182837e6
1.0409485514196949e6
1.050911670234634e6
1.060013508397875e6
1.0684980469668803e6
1.076403849773857e6
1.0837459774587667e6
1.0905312543172794e6
1.0967597015330405e6
1.1024236502229094e6
1.1075109308890905e6
1.111996155075467e6
1.1158703846414257e6
1.1190546735002343e6
1.1216976701439873e6
1.1232147881825513e6
1.1257178635611758e6
1.1214817941351517e6
1.142059042651403e6
100000.00000000167
99999.99999999691
100000.00000000608
99999.99999999111
100000.0000000036
100000.00000005029
99999.99999969476
100000.00000130612
99999.99999510225
100000.00001712843
99999.99994262603
100000.00018665116
99999.99940540221
100000.00186450429
99999.99422442455
100000.01771808289
99999.94606897992
100000.16311099587
99999.50924862141
100001.4709344989
99995.59224637657
100013.4129228912
99957.25124445841
100090.3099400669
131068.48049023851
296276.0854132783
594947.2239893309
860958.813512235
984640.1645872665
1.020913666021624e6
1.0345425267891163e6
1.0442303530780064e6
1.052892434303381e6
1.060882170349914e6
1.0682474724535241e6
1.0750010920696508e6
1.0811460865290044e6
1.0866781306277388e6
1.0915849560664725e6
1.095849555168821e6
1.0994434447340802e6
1.1023549527534961e6
1.1045138106820518e6
1.1060752023753684e6
1.106517187429809e6
1.1079926677836073e6
1.1026841527632654e6
1.1250296799360248e6
99999.9999999989
100000.00000000458
99999.9999999853
100000.00000004796
99999.9999998491
100000.0000004692
99999.99999856012
100000.00000437957
99999.99998677945
100000.00003966222
99999.9998816253
100000.00035176537
99999.99895851036
100000.00307402555
99999.99095064109
100000.02658051434
99999.92207104484
100000.22811939592
99999.33307288786
100001.94794786168
99994.31781117799
100016.39897374467
99959.68412604899
99861.29159679399
121105.00772412491
262316.8036028893
548355.0206619953
827504.7118919684
969385.7466598051
1.0127969970124309e6
1.0275436880392532e6
1.0369911376914784e6
1.0451692141253599e6
1.052599886104715e6
1.0593467302194012e6
1.0654179623427065e6
1.07080863447882e6
1.0755042294692125e6
1.0794798024498762e6
1.082702082843162e6
1.0851227266606856e6
1.086701621750752e6
1.0873403847950515e6
1.087141298324939e6
1.0855640369312698e6
1.0847604387082115e6
1.0767788262111088e6
1.1003199829359627e6
99999.99999999705
100000.00000000908
99999.99999997324
100000.00000007948
99999.99999976666
100000.00000068445
99999.99999799977
100000.00000582937
99999.99998305074
100000.00004917929
99999.99985755747
100000.00041193546
99999.99881028314
100000.0034321784
99999.99010790698
100000.028488765
99999.91800308961
100000.23590015937
99999.3215348313
100001.95075372866
99994.40100463903
100015.7628762721
99964.74508246944
99813.09848358986
113137.60392564487
229374.30436907554
498176.2497983307
788183.1833285637
950628.5698532547
1.0034132402462963e6
1.0199262064342856e6
1.0292168059723588e6
1.0368759165191028e6
1.0436850682197419e6
1.0497353231156683e6
1.055028426893836e6
1.059546476558274e6
1.0632579170519428e6
1.0661161929122782e6
1.0680607230085167e6
1.0690125819570275e6
1.068895117055878e6
1.067579982796975e6
1.0651595698511833e6
1.0611571044955424e6
1.0578498820232097e6
1.0472464744402609e6
1.0736188895950615e6
99999.99999999635
100000.00000001083
99999.99999996914
100000.00000008874
99999.99999974594
100000.00000072645
99999.99999792576
100000.00000591316
99999.9999831643
100000.00004787544
99999.9998640042
100000.00038592488
99999.99890582911
100000.0030996232
99999.99122576076
100000.02482109348
99999.92982586318
100000.19829471684
99999.43992017148
100001.58100520806
99995.54862697441
100012.2406026134
99973.91460710281
99851.13749518915
107279.09314379771
198587.700058264
445316.5577622118
742555.3497065172
927513.5703233326
992417.4818916467
1.0116386832470384e6
1.0209320062485206e6
1.0280541556911519e6
1.034184931346929e6
1.0394640463505686e6
1.0438857938938071e6
1.0474132308880521e6
1.0499879579010815e6
1.0515259760252864e6
1.051913660009801e6
1.0509914705825993e6
1.0485625503031805e6
1.0443018027783815e6
1.0379571561353774e6
1.0285020161812555e6
1.0173306690759411e6
995017.0725357421
1.0129885991312935e6
99999.99999999643
100000.00000001026
99999.99999997101
100000.00000008167
99999.99999977037
100000.00000064405
99999.99999819601
100000.00000504442
99999.99998591401
100000.00003927291
99999.99989067196
100000.00030386882
99999.99915680604
100000.0023357227
99999.99354160004
100000.01782318423
99999.9509162253
100000.13486626591
99999.63036239125
100001.00998468196
99997.2567213105
100007.22114543187
99985.93010128927
99906.37155881309
103410.27127821393
171073.02025259548
391034.29851591657
690434.6697875896
899047.8884793805
979316.473503521
1.0025863205938302e6
1.0121586707840363e6
1.018754456992956e6
1.0241608555855699e6
1.0286031936374523e6
1.032070470928151e6
1.0345017064942048e6
1.0358034949616231e6
1.0358422668966999e6
1.0344362960411828e6
1.0313346207394913e6
1.0262163440616253e6
1.0186138730283028e6
1.0081450268690854e6
993815.6566141894
977342.9531953624
949616.9647186681
972668.6915040617
99999.999999997
100000.00000000853
99999.99999997641
100000.00000006497
99999.99999982034
100000.00000049322
99999.99999864813
100000.00000369344
99999.99998993552
100000.00002733646
99999.99992601175
100000.00019945396
99999.99946476998
100000.00142871008
99999.99620983079
100000.00998091079
99999.97395046204
100000.06723962439
99999.82886449946
100000.4274343843
99998.96370697235
100002.30738826767
99997.6789557687
99945.4335879263
101199.36218804296
147796.69357796313
336929.78740475303
632023.5248827534
864150.5602466558
963423.2534985362
992604.5052608033
1.0029080305907972e6
1.0090339729297801e6
1.0136873899208826e6
1.017241573823005e6
1.01968794207889e6
1.0209379115528951e6
1.0208539268340785e6
1.0192372591098169e6
1.0158074789208521e6
1.0101489688859773e6
1.0016489613885079e6
989276.8745768724
971453.7940773371
944491.725893682
903496.8412413435
824983.8142627993
696712.0633140609
99999.99999999758
100000.0000000063
99999.99999998318
100000.00000004533
99999.99999987811
100000.00000032525
99999.99999913537
100000.00000228213
99999.99999401635
100000.00001555501
99999.99995997206
100000.0001016958
99999.99974582106
100000.00062164076
99999.99852491311
100000.00334675475
99999.99294371829
100000.0129101284
99999.98414442816
99999.98405329522
100000.22644974136
99998.77780774324
100005.98678223667
99964.57068069484
100178.01936074982
129417.10980674914
284878.9909931139
568055.357519714
821755.471684357
943814.233249102
981421.5180893891
993167.8496468252
998952.3189118624
1.0028501686300489e6
1.0054851030903717e6
1.0068690239643604e6
1.0068871896359894e6
1.0053550817777783e6
1.0020095297735402e6
996467.884589876
988157.6742634823
976215.0906477688
959206.4260974436
934909.8007731533
898786.2347472348
844910.1938148844
753849.5264099978
617523.3633985503
99999.99999999837
100000.00000000405
99999.99999998948
100000.00000002689
99999.99999992999
100000.00000017778
99999.99999955216
100000.00000110638
99999.9999973258
100000.00000626339
99999.99998599486
100000.00002901003
99999.99994824962
100000.00005969295
100000.00007929976
99999.99906465637
100000.0046853559
99999.98088871189
100000.07091043485
99999.75082760907
100000.84590432268
99997.18741327494
100009.24508704436
99973.78207122134
99858.12911200215
116124.09590950908
236897.32986999274
499912.1590142673
770980.5262783937
919303.0381078537
968608.1034763367
982882.5474186532
988564.4093941395
991741.4737362588
993451.5420720001
993761.9823385992
992538.5665095546
989560.3113756216
984507.5710201947
976921.2432857682
966124.0927471897
951116.7397474358
930318.2587524169
901407.8476147514
860151.4981933808
801622.7038863174
712777.281191945
592137.2351440534
99999.99999999908
100000.00000000207
99999.99999999459
100000.00000001283
99999.99999996915
100000.0000000705
99999.9999998462
100000.00000030476
99999.99999949975
100000.00000040111
100000.00000169112
99999.99998733815
100000.00005773889
99999.99977574094
100000.00080342883
99999.99725912114
100000.00904685339
99999.97084415254
100000.0922655118
99999.71220672409
100000.88718147363
99997.29418067548
100008.03012262705
99982.2471089972
99846.84602800781
107542.24756990383
194927.90110449377
429675.78994986677
711363.1733408845
888453.149461237
953512.749533746
971922.863794501
977909.1219252467
980453.528128068
981262.9408565523
980519.7671464311
978088.5435852003
973723.5679564546
967069.4551572257
957624.6673959206
944670.3454539116
927183.8580111471
903634.9774165216
871919.8721317737
828570.690798764
770038.466807452
688343.5673977425
585071.8026063354
99999.99999999967
100000.00000000071
99999.99999999796
100000.00000000378
99999.99999999325
100000.00000000671
100000.00000001231
99999.99999987705
100000.00000058251
99999.99999771541
100000.00000816106
99999.99997239992
100000.00008995742
99999.99971458218
100000.00088682416
99999.99729132542
100000.00815259156
99999.97578323226
100000.07105368943
99999.79401732382
100000.58975417707
99998.33769438899
100004.4729259941
99992.16755331279
99909.1270083827
102777.3414922011
160559.23250115168
360070.93635104253
643143.490846148
849661.8299750658
935186.7978852098
960041.0967827375
966992.2314716473
969070.0198803752
969037.7283765855
967290.0651166462
963721.1404345186
958075.5541582044
949984.4745318984
938938.1770290771
924230.0778329057
904895.4931764029
879570.2671755371
846498.7760019995
803051.6273506074
746864.6311365048
673368.5985482639
584941.810775802
99999.99999999985
100000.0
99999.99999999964
99999.99999999904
100000.00000000466
99999.99999997868
100000.00000007768
99999.99999973366
100000.00000086856
99999.9999972552
100000.00000845204
99999.99997450551
100000.00007551673
99999.99977999079
100000.00063075376
99999.99822106598
100000.0049293557
99999.98661283327
100000.03548503215
99999.90883866434
100000.2241127612
99999.48803847788
100000.9498384461
100000.71442733811
99954.85333338652
100636.19814977965
134694.66315465883
294265.9399906181
567548.5947242656
801356.2489547711
912315.8391942664
946808.6432760572
955761.3567104648
957655.4283054802
956882.3848679342
954207.3337680695
949597.2981354638
942808.0516038142
933477.1353468641
921114.4618332312
905063.6065871322