# vtk DataFile Version 2.0
JuliaCFD
ASCII
DATASET UNSTRUCTURED_GRID

POINTS 32898 float
0.0 0.0 -0.05
0.0125 0.0 -0.05
0.025 0.0 -0.05
0.0375 0.0 -0.05
0.05 0.0 -0.05
0.0625 0.0 -0.05
0.075 0.0 -0.05
0.0875 0.0 -0.05
0.1 0.0 -0.05
0.1125 0.0 -0.05
0.125 0.0 -0.05
0.1375 0.0 -0.05
0.15 0.0 -0.05
0.1625 0.0 -0.05
0.175 0.0 -0.05
0.1875 0.0 -0.05
0.2 0.0 -0.05
0.2125 0.0 -0.05
0.225 0.0 -0.05
0.2375 0.0 -0.05
0.25 0.0 -0.05
0.2625 0.0 -0.05
0.275 0.0 -0.05
0.2875 0.0 -0.05
0.3 0.0 -0.05
0.3125 0.0 -0.05
0.325 0.0 -0.05
0.3375 0.0 -0.05
0.35 0.0 -0.05
0.3625 0.0 -0.05
0.375 0.0 -0.05
0.3875 0.0 -0.05
0.4 0.0 -0.05
0.4125 0.0 -0.05
0.425 0.0 -0.05
0.4375 0.0 -0.05
0.45 0.0 -0.05
0.4625 0.0 -0.05
0.475 0.0 -0.05
0.4875 0.0 -0.05
0.5 0.0 -0.05
0.5125 0.0 -0.05
0.525 0.0 -0.05
0.5375 0.0 -0.05
0.55 0.0 -0.05
0.5625 0.0 -0.05
0.575 0.0 -0.05
0.5875 0.0 -0.05
0.6 0.0 -0.05
0.0 0.0125 -0.05
0.0125 0.0125 -0.05
0.025 0.0125 -0.05
0.0375 0.0125 -0.05
0.05 0.0125 -0.05
0.0625 0.0125 -0.05
0.075 0.0125 -0.05
0.0875 0.0125 -0.05
0.1 0.0125 -0.05
0.1125 0.0125 -0.05
0.125 0.0125 -0.05
0.1375 0.0125 -0.05
0.15 0.0125 -0.05
0.1625 0.0125 -0.05
0.175 0.0125 -0.05
0.1875 0.0125 -0.05
0.2 0.0125 -0.05
0.2125 0.0125 -0.05
0.225 0.0125 -0.05
0.2375 0.0125 -0.05
0.25 0.0125 -0.05
0.2625 0.0125 -0.05
0.275 0.0125 -0.05
0.2875 0.0125 -0.05
0.3 0.0125 -0.05
0.3125 0.0125 -0.05
0.325 0.0125 -0.05
0.3375 0.0125 -0.05
0.35 0.0125 -0.05
0.3625 0.0125 -0.05
0.375 0.0125 -0.05
0.3875 0.0125 -0.05
0.4 0.0125 -0.05
0.4125 0.0125 -0.05
0.425 0.0125 -0.05
0.4375 0.0125 -0.05
0.45 0.0125 -0.05
0.4625 0.0125 -0.05
0.475 0.0125 -0.05
0.4875 0.0125 -0.05
0.5 0.0125 -0.05
0.5125 0.0125 -0.05
0.525 0.0125 -0.05
0.5375 0.0125 -0.05
0.55 0.0125 -0.05
0.5625 0.0125 -0.05
0.575 0.0125 -0.05
0.5875 0.0125 -0.05
0.6 0.0125 -0.05
0.0 0.025 -0.05
0.0125 0.025 -0.05
0.025 0.025 -0.05
0.0375 0.025 -0.05
0.05 0.025 -0.05
0.0625 0.025 -0.05
0.075 0.025 -0.05
0.0875 0.025 -0.05
0.1 0.025 -0.05
0.1125 0.025 -0.05
0.125 0.025 -0.05
0.1375 0.025 -0.05
0.15 0.025 -0.05
0.1625 0.025 -0.05
0.175 0.025 -0.05
0.1875 0.025 -0.05
0.2 0.025 -0.05
0.2125 0.025 -0.05
0.225 0.025 -0.05
0.2375 0.025 -0.05
0.25 0.025 -0.05
0.2625 0.025 -0.05
0.275 0.025 -0.05
0.2875 0.025 -0.05
0.3 0.025 -0.05
0.3125 0.025 -0.05
0.325 0.025 -0.05
0.3375 0.025 -0.05
0.35 0.025 -0.05
0.3625 0.025 -0.05
0.375 0.025 -0.05
0.3875 0.025 -0.05
0.4 0.025 -0.05
0.4125 0.025 -0.05
0.425 0.025 -0.05
0.4375 0.025 -0.05
0.45 0.025 -0.05
0.4625 0.025 -0.05
0.475 0.025 -0.05
0.4875 0.025 -0.05
0.5 0.025 -0.05
0.5125 0.025 -0.05
0.525 0.025 -0.05
0.5375 0.025 -0.05
0.55 0.025 -0.05
0.5625 0.025 -0.05
0.575 0.025 -0.05
0.5875 0.025 -0.05
0.6 0.025 -0.05
0.0 0.0375 -0.05
0.0125 0.0375 -0.05
0.025 0.0375 -0.05
0.0375 0.0375 -0.05
0.05 0.0375 -0.05
0.0625 0.0375 -0.05
0.075 0.0375 -0.05
0.0875 0.0375 -0.05
0.1 0.0375 -0.05
0.1125 0.0375 -0.05
0.125 0.0375 -0.05
0.1375 0.0375 -0.05
0.15 0.0375 -0.05
0.1625 0.0375 -0.05
0.175 0.0375 -0.05
0.1875 0.0375 -0.05
0.2 0.0375 -0.05
0.2125 0.0375 -0.05
0.225 0.0375 -0.05
0.2375 0.0375 -0.05
0.25 0.0375 -0.05
0.2625 0.0375 -0.05
0.275 0.0375 -0.05
0.2875 0.0375 -0.05
0.3 0.0375 -0.05
0.3125 0.0375 -0.05
0.325 0.0375 -0.05
0.3375 0.0375 -0.05
0.35 0.0375 -0.05
0.3625 0.0375 -0.05
0.375 0.0375 -0.05
0.3875 0.0375 -0.05
0.4 0.0375 -0.05
0.4125 0.0375 -0.05
0.425 0.0375 -0.05
0.4375 0.0375 -0.05
0.45 0.0375 -0.05
0.4625 0.0375 -0.05
0.475 0.0375 -0.05
0.4875 0.0375 -0.05
0.5 0.0375 -0.05
0.5125 0.0375 -0.05
0.525 0.0375 -0.05
0.5375 0.0375 -0.05
0.55 0.0375 -0.05
0.5625 0.0375 -0.05
0.575 0.0375 -0.05
0.5875 0.0375 -0.05
0.6 0.0375 -0.05
0.0 0.05 -0.05
0.0125 0.05 -0.05
0.025 0.05 -0.05
0.0375 0.05 -0.05
0.05 0.05 -0.05
0.0625 0.05 -0.05
0.075 0.05 -0.05
0.0875 0.05 -0.05
0.1 0.05 -0.05
0.1125 0.05 -0.05
0.125 0.05 -0.05
0.1375 0.05 -0.05
0.15 0.05 -0.05
0.1625 0.05 -0.05
0.175 0.05 -0.05
0.1875 0.05 -0.05
0.2 0.05 -0.05
0.2125 0.05 -0.05
0.225 0.05 -0.05
0.2375 0.05 -0.05
0.25 0.05 -0.05
0.2625 0.05 -0.05
0.275 0.05 -0.05
0.2875 0.05 -0.05
0.3 0.05 -0.05
0.3125 0.05 -0.05
0.325 0.05 -0.05
0.3375 0.05 -0.05
0.35 0.05 -0.05
0.3625 0.05 -0.05
0.375 0.05 -0.05
0.3875 0.05 -0.05
0.4 0.05 -0.05
0.4125 0.05 -0.05
0.425 0.05 -0.05
0.4375 0.05 -0.05
0.45 0.05 -0.05
0.4625 0.05 -0.05
0.475 0.05 -0.05
0.4875 0.05 -0.05
0.5 0.05 -0.05
0.5125 0.05 -0.05
0.525 0.05 -0.05
0.5375 0.05 -0.05
0.55 0.05 -0.05
0.5625 0.05 -0.05
0.575 0.05 -0.05
0.5875 0.05 -0.05
0.6 0.05 -0.05
0.0 0.0625 -0.05
0.0125 0.0625 -0.05
0.025 0.0625 -0.05
0.0375 0.0625 -0.05
0.05 0.0625 -0.05
0.0625 0.0625 -0.05
0.075 0.0625 -0.05
0.0875 0.0625 -0.05
0.1 0.0625 -0.05
0.1125 0.0625 -0.05
0.125 0.0625 -0.05
0.1375 0.0625 -0.05
0.15 0.0625 -0.05
0.1625 0.0625 -0.05
0.175 0.0625 -0.05
0.1875 0.0625 -0.05
0.2 0.0625 -0.05
0.2125 0.0625 -0.05
0.225 0.0625 -0.05
0.2375 0.0625 -0.05
0.25 0.0625 -0.05
0.2625 0.0625 -0.05
0.275 0.0625 -0.05
0.2875 0.0625 -0.05
0.3 0.0625 -0.05
0.3125 0.0625 -0.05
0.325 0.0625 -0.05
0.3375 0.0625 -0.05
0.35 0.0625 -0.05
0.3625 0.0625 -0.05
0.375 0.0625 -0.05
0.3875 0.0625 -0.05
0.4 0.0625 -0.05
0.4125 0.0625 -0.05
0.425 0.0625 -0.05
0.4375 0.0625 -0.05
0.45 0.0625 -0.05
0.4625 0.0625 -0.05
0.475 0.0625 -0.05
0.4875 0.0625 -0.05
0.5 0.0625 -0.05
0.5125 0.0625 -0.05
0.525 0.0625 -0.05
0.5375 0.0625 -0.05
0.55 0.0625 -0.05
0.5625 0.0625 -0.05
0.575 0.0625 -0.05
0.5875 0.0625 -0.05
0.6 0.0625 -0.05
0.0 0.075 -0.05
0.0125 0.075 -0.05
0.025 0.075 -0.05
0.0375 0.075 -0.05
0.05 0.075 -0.05
0.0625 0.075 -0.05
0.075 0.075 -0.05
0.0875 0.075 -0.05
0.1 0.075 -0.05
0.1125 0.075 -0.05
0.125 0.075 -0.05
0.1375 0.075 -0.05
0.15 0.075 -0.05
0.1625 0.075 -0.05
0.175 0.075 -0.05
0.1875 0.075 -0.05
0.2 0.075 -0.05
0.2125 0.075 -0.05
0.225 0.075 -0.05
0.2375 0.075 -0.05
0.25 0.075 -0.05
0.2625 0.075 -0.05
0.275 0.075 -0.05
0.2875 0.075 -0.05
0.3 0.075 -0.05
0.3125 0.075 -0.05
0.325 0.075 -0.05
0.3375 0.075 -0.05
0.35 0.075 -0.05
0.3625 0.075 -0.05
0.375 0.075 -0.05
0.3875 0.075 -0.05
0.4 0.075 -0.05
0.4125 0.075 -0.05
0.425 0.075 -0.05
0.4375 0.075 -0.05
0.45 0.075 -0.05
0.4625 0.075 -0.05
0.475 0.075 -0.05
0.4875 0.075 -0.05
0.5 0.075 -0.05
0.5125 0.075 -0.05
0.525 0.075 -0.05
0.5375 0.075 -0.05
0.55 0.075 -0.05
0.5625 0.075 -0.05
0.575 0.075 -0.05
0.5875 0.075 -0.05
0.6 0.075 -0.05
0.0 0.0875 -0.05
0.0125 0.0875 -0.05
0.025 0.0875 -0.05
0.0375 0.0875 -0.05
0.05 0.0875 -0.05
0.0625 0.0875 -0.05
0.075 0.0875 -0.05
0.0875 0.0875 -0.05
0.1 0.0875 -0.05
0.1125 0.0875 -0.05
0.125 0.0875 -0.05
0.1375 0.0875 -0.05
0.15 0.0875 -0.05
0.1625 0.0875 -0.05
0.175 0.0875 -0.05
0.1875 0.0875 -0.05
0.2 0.0875 -0.05
0.2125 0.0875 -0.05
0.225 0.0875 -0.05
0.2375 0.0875 -0.05
0.25 0.0875 -0.05
0.2625 0.0875 -0.05
0.275 0.0875 -0.05
0.2875 0.0875 -0.05
0.3 0.0875 -0.05
0.3125 0.0875 -0.05
0.325 0.0875 -0.05
0.3375 0.0875 -0.05
0.35 0.0875 -0.05
0.3625 0.0875 -0.05
0.375 0.0875 -0.05
0.3875 0.0875 -0.05
0.4 0.0875 -0.05
0.4125 0.0875 -0.05
0.425 0.0875 -0.05
0.4375 0.0875 -0.05
0.45 0.0875 -0.05
0.4625 0.0875 -0.05
0.475 0.0875 -0.05
0.4875 0.0875 -0.05
0.5 0.0875 -0.05
0.5125 0.0875 -0.05
0.525 0.0875 -0.05
0.5375 0.0875 -0.05
0.55 0.0875 -0.05
0.5625 0.0875 -0.05
0.575 0.0875 -0.05
0.5875 0.0875 -0.05
0.6 0.0875 -0.05
0.0 0.1 -0.05
0.0125 0.1 -0.05
0.025 0.1 -0.05
0.0375 0.1 -0.05
0.05 0.1 -0.05
0.0625 0.1 -0.05
0.075 0.1 -0.05
0.0875 0.1 -0.05
0.1 0.1 -0.05
0.1125 0.1 -0.05
0.125 0.1 -0.05
0.1375 0.1 -0.05
0.15 0.1 -0.05
0.1625 0.1 -0.05
0.175 0.1 -0.05
0.1875 0.1 -0.05
0.2 0.1 -0.05
0.2125 0.1 -0.05
0.225 0.1 -0.05
0.2375 0.1 -0.05
0.25 0.1 -0.05
0.2625 0.1 -0.05
0.275 0.1 -0.05
0.2875 0.1 -0.05
0.3 0.1 -0.05
0.3125 0.1 -0.05
0.325 0.1 -0.05
0.3375 0.1 -0.05
0.35 0.1 -0.05
0.3625 0.1 -0.05
0.375 0.1 -0.05
0.3875 0.1 -0.05
0.4 0.1 -0.05
0.4125 0.1 -0.05
0.425 0.1 -0.05
0.4375 0.1 -0.05
0.45 0.1 -0.05
0.4625 0.1 -0.05
0.475 0.1 -0.05
0.4875 0.1 -0.05
0.5 0.1 -0.05
0.5125 0.1 -0.05
0.525 0.1 -0.05
0.5375 0.1 -0.05
0.55 0.1 -0.05
0.5625 0.1 -0.05
0.575 0.1 -0.05
0.5875 0.1 -0.05
0.6 0.1 -0.05
0.0 0.1125 -0.05
0.0125 0.1125 -0.05
0.025 0.1125 -0.05
0.0375 0.1125 -0.05
0.05 0.1125 -0.05
0.0625 0.1125 -0.05
0.075 0.1125 -0.05
0.0875 0.1125 -0.05
0.1 0.1125 -0.05
0.1125 0.1125 -0.05
0.125 0.1125 -0.05
0.1375 0.1125 -0.05
0.15 0.1125 -0.05
0.1625 0.1125 -0.05
0.175 0.1125 -0.05
0.1875 0.1125 -0.05
0.2 0.1125 -0.05
0.2125 0.1125 -0.05
0.225 0.1125 -0.05
0.2375 0.1125 -0.05
0.25 0.1125 -0.05
0.2625 0.1125 -0.05
0.275 0.1125 -0.05
0.2875 0.1125 -0.05
0.3 0.1125 -0.05
0.3125 0.1125 -0.05
0.325 0.1125 -0.05
0.3375 0.1125 -0.05
0.35 0.1125 -0.05
0.3625 0.1125 -0.05
0.375 0.1125 -0.05
0.3875 0.1125 -0.05
0.4 0.1125 -0.05
0.4125 0.1125 -0.05
0.425 0.1125 -0.05
0.4375 0.1125 -0.05
0.45 0.1125 -0.05
0.4625 0.1125 -0.05
0.475 0.1125 -0.05
0.4875 0.1125 -0.05
0.5 0.1125 -0.05
0.5125 0.1125 -0.05
0.525 0.1125 -0.05
0.5375 0.1125 -0.05
0.55 0.1125 -0.05
0.5625 0.1125 -0.05
0.575 0.1125 -0.05
0.5875 0.1125 -0.05
0.6 0.1125 -0.05
0.0 0.125 -0.05
0.0125 0.125 -0.05
0.025 0.125 -0.05
0.0375 0.125 -0.05
0.05 0.125 -0.05
0.0625 0.125 -0.05
0.075 0.125 -0.05
0.0875 0.125 -0.05
0.1 0.125 -0.05
0.1125 0.125 -0.05
0.125 0.125 -0.05
0.1375 0.125 -0.05
0.15 0.125 -0.05
0.1625 0.125 -0.05
0.175 0.125 -0.05
0.1875 0.125 -0.05
0.2 0.125 -0.05
0.2125 0.125 -0.05
0.225 0.125 -0.05
0.2375 0.125 -0.05
0.25 0.125 -0.05
0.2625 0.125 -0.05
0.275 0.125 -0.05
0.2875 0.125 -0.05
0.3 0.125 -0.05
0.3125 0.125 -0.05
0.325 0.125 -0.05
0.3375 0.125 -0.05
0.35 0.125 -0.05
0.3625 0.125 -0.05
0.375 0.125 -0.05
0.3875 0.125 -0.05
0.4 0.125 -0.05
0.4125 0.125 -0.05
0.425 0.125 -0.05
0.4375 0.125 -0.05
0.45 0.125 -0.05
0.4625 0.125 -0.05
0.475 0.125 -0.05
0.4875 0.125 -0.05
0.5 0.125 -0.05
0.5125 0.125 -0.05
0.525 0.125 -0.05
0.5375 0.125 -0.05
0.55 0.125 -0.05
0.5625 0.125 -0.05
0.575 0.125 -0.05
0.5875 0.125 -0.05
0.6 0.125 -0.05
0.0 0.1375 -0.05
0.0125 0.1375 -0.05
0.025 0.1375 -0.05
0.0375 0.1375 -0.05
0.05 0.1375 -0.05
0.0625 0.1375 -0.05
0.075 0.1375 -0.05
0.0875 0.1375 -0.05
[...]
CELL_DATA 16128
SCALARS P float 1
LOOKUP_TABLE default
99999.99999997922
100000.00000005717
99999.99999984392
100000.00000042844
99999.99999882779
100000.00000320865
99999.9999912257
100000.00002397959
99999.99993450771
100000.00017874972
99999.99951246627
100000.00132879861
99999.9963808974
100000.00984963856
99999.9732141037
100000.07278540987
99999.80238708062
100000.53603111042
99998.54750086457
100003.93043122397
99989.40102863566
100028.01951686622
99938.40749482339
99847.32465613849
123031.32341121907
275751.7594173101
579526.4667414537
871805.6632932728
1.0137690188897861e6
1.0527507850302062e6
1.067410453040634e6
1.0792419159099099e6
1.0905083533444395e6
1.101303078948991e6
1.1116045032313457e6
1.1213969360545499e6
1.130666034336332e6
1.1393949018622253e6
1.147559325138611e6
1.1551340119979973e6
1.1620716243684315e6
1.1683647455450636e6
1.173866185205164e6
1.178823573253034e6
1.1823062242508188e6
1.186871921443106e6
1.1847320032874963e6
1.1987791040712672e6
99999.99999997964
100000.00000005605
99999.9999998466
100000.00000042132
99999.9999988467
100000.00000315778
99999.99999136051
100000.00002362301
99999.99993544754
100000.00017628331
99999.99951891149
100000.00131202642
99999.9964243628
100000.00973742212
99999.97350283162
100000.07204494659
99999.80427806123
100000.53124105022
99998.559404817
100003.90219196865
99989.4603839454
100027.93321257687
99938.42377416347
99843.072810847
122468.30096872781
274212.31502522225
579063.2777998061
875115.5130743362
1.0205487211652431e6
1.061153911023196e6
1.076523805108102e6
1.0887507319450998e6
1.1002829192226324e6
1.1112929632366332e6
1.1217968063944688e6
1.131794941150522e6
1.141278165676481e6
1.1502289864633156e6
1.1586194193763456e6
1.1664182779986954e6
1.1735708193108777e6
1.1800604611457593e6
1.1857304514916926e6
1.190816421072133e6
1.1943785255897525e6
1.1989741318292825e6
1.196752142625041e6
1.2110030717355846e6
99999.99999998054
100000.00000005364
99999.99999985281
100000.00000040396
99999.99999889251
100000.00000303518
99999.99999168704
100000.00002275783
99999.99993773142
100000.00017028482
99999.99953457386
100000.00127140988
99999.99652883229
100000.00947141068
99999.97417160975
100000.07039125946
99999.80827618424
100000.5218778208
99998.5803090874
100003.85899852765
99989.53751958102
100027.83239078172
99938.61091382497
99832.62294735754
121121.9226161936
269131.1407879653
571362.0450749792
868449.575096968
1.0162014738976489e6
1.0576473282115648e6
1.0730037310999266e6
1.0850794912182787e6
1.0964441553453587e6
1.1072774032173217e6
1.1175936169031465e6
1.1273931180362883e6
1.13666798196844e6
1.145402925934209e6
1.1535729499423315e6
1.1611502699167503e6
1.1680848849088207e6
1.1743639706233246e6
1.1798406080409037e6
1.1847473296615966e6
1.1881771375066873e6
1.1926377009550259e6
1.1903504350098993e6
1.2047965636849755e6
99999.99999998185
100000.00000005013
99999.9999998623
100000.000000378
99999.99999896214
100000.00000284787
99999.9999921882
100000.00002142032
99999.99994128691
100000.00016087275
99999.999559375
100000.0012064071
99999.99669814296
100000.00903362523
99999.97529379935
100000.06754458077
99999.81540640819
100000.50429429424
99998.6228391037
100003.75859980167
99989.76681569775
100027.33033993932
99939.71732455253
99821.43492192368
119082.74752845932
261198.95101216654
559626.388175433
859463.0407120992
1.0121371112074231e6
1.0556764155937508e6
1.07142457131711e6
1.0835620499576924e6
1.0949305813518437e6
1.1057477539985653e6
1.116039242998517e6
1.1258123930426184e6
1.1350643832476356e6
1.1437837646651478e6
1.1519485771346567e6
1.1595329943528315e6
1.166488908035686e6
1.1728019216696986e6
1.1783283982715905e6
1.1832852122835466e6
1.1867884499017468e6
1.1912793881258015e6
1.1890140720909748e6
1.203836782888586e6
99999.99999998353
100000.00000004549
99999.99999987494
100000.00000034377
99999.99999905482
100000.00000259758
99999.99999286285
100000.00001960578
99999.99994615371
100000.00014785453
99999.99959408374
100000.00111419872
99999.99694212002
100000.00839100823
99999.97697770067
100000.06315793871
99999.82675729852
100000.47514906856
99998.69700113268
100003.57190870734
99990.22969727976
100026.21586790778
99942.04117941957
99816.63705793403
116514.08850593377
250658.75989497898
543665.6112559917
846993.4890908174
1.0063241092609261e6
1.0526762146664923e6
1.0688161040895937e6
1.0808904522275582e6
1.0921387586944648e6
1.1028216594694662e6
1.1129708409848688e6
1.1225970253605256e6
1.1317004675247704e6
1.1402725810715891e6
1.1482942397778663e6
1.1557419214640043e6
1.1625705326159138e6
1.1687655161461642e6
1.1741901388022273e6
1.1790475211986161e6
1.1824884162917465e6
1.1868869616148425e6
1.184553595784929e6
1.1997891195296037e6
99999.99999998558
100000.00000003995
99999.99999989019
100000.00000030227
99999.99999916814
100000.00000228912
99999.99999370074
100000.00001733263
99999.99995230976
100000.0001312152
99999.99963896912
100000.0009933841
99999.99726652405
100000.00752225477
99999.97929736754
100000.05698449374
99999.84312654442
100000.43192574351
99998.81058578266
100003.27513650911
99990.99819657776
100024.27654079063
99946.04719299405
99823.24549600905
113620.59705962983
237852.25869166717
523569.4825677614
830883.9161820946
998804.0214502907
1.0490093393405564e6
1.0657326428675302e6
1.0777422436840683e6
1.0888475871225179e6
1.099372694950724e6
1.1093567542497662e6
1.1188143400363668e6
1.127749462921468e6
1.1361571846346203e6
1.144022022462979e6
1.1513234661526626e6
1.1580200510703628e6
1.1640971655452673e6
1.1694252026647632e6
1.1741920227563395e6
1.1775836244709445e6
1.1819055093549434e6
1.1795036913785473e6
1.1952731105355378e6
99999.99999998776
100000.00000003357
99999.99999990757
100000.00000025466
99999.99999929836
100000.00000193265
99999.99999467656
100000.00001466452
99999.99995959843
100000.00011132333
99999.99969319855
100000.00084571743
99999.9976681058
100000.00643167087
99999.98225453764
100000.04897962906
99999.86475401821
100000.37361792494
99998.96739781245
100002.85467777339
99992.11943921375
100021.3544010171
99952.213036848
99842.44968487386
110626.48063959087
223204.81432141585
499473.02394797176
810825.0384329158
989237.1250943588
1.0445003931626198e6
1.0620473801369977e6
1.073978289115953e6
1.084892996806086e6
1.0952082305806878e6
1.1049724421169853e6
1.1142036236240992e6
1.1229092756334846e6
1.1310880923815074e6
1.1387284463078948e6
1.1458132697796116e6
1.1523054508724762e6
1.1581913521752371e6
1.1633501926806283e6
1.1679566712516923e6
1.1712358163048439e6
1.1754303634914067e6
1.1729071494987984e6
1.1893203370446472e6
99999.99999999013
100000.00000002669
99999.99999992602
100000.00000020368
99999.99999943888
100000.00000154482
99999.9999957448
100000.00001172216
99999.99996769859
100000.00008903074
99999.99975452409
100000.00067708283
99999.99813160901
100000.00515834017
99999.98575066407
100000.03938652377
99999.89105790673
100000.30155324122
99999.16464193622
100002.31552610404
99993.58832927524
100017.43306274463
99960.78289892817
99871.08437404867
107754.5239544358
207225.84935261888
471597.7520975543
786505.7319635644
977261.1545388667
1.0390288936815475e6
1.05774896868958e6
1.0696127522226025e6
1.0802970608906483e6
1.0903548956590886e6
1.0998478336693193e6
1.108797151864092e6
1.1172136267871747e6
1.1250995795482625e6
1.132447470768969e6
1.1392442072008254e6
1.1454579021162784e6
1.1510773105487602e6
1.1559923180325958e6
1.1603674894731406e6
1.1634696037450237e6
1.1674869972602879e6
1.1647841002238812e6
1.181986092916048e6
99999.9999999926
100000.0000000201
99999.99999994456
100000.00000015176
99999.99999958211
100000.00000114806
99999.99999684363
100000.00000867846
99999.99997613131
100000.00006566521
99999.99981927608
100000.00049760989
99999.99862913723
100000.003778885
99999.98957597533
100000.0287771486
99999.92048639426
100000.219916216
99999.3911192512
100001.68736468419
99995.32739021665
100012.70335218548
99971.53171476144
99902.73859523269
105202.25942734005
190503.5356067994
440275.9777442174
757617.3828323159
962427.7306961993
1.0324213873247656e6
1.0528017003168433e6
1.0646353016383818e6
1.0750496195828686e6
1.0847977835262504e6
1.0939610554686463e6
1.1025638183729185e6
1.1106194577214345e6
1.1181333458153296e6
1.125101626092296e6
1.131515057205622e6
1.1373471673829386e6
1.142589999051544e6
1.147145368741899e6
1.1511711899524867e6
1.1539792126858851e6
1.1577169478702699e6
1.1547240104921774e6
1.1728784673084787e6
99999.99999999488
100000.0000000137
99999.99999996215
100000.00000010256
99999.99999971886
100000.00000076831
99999.99999789959
100000.00000574047
99999.99998430823
100000.00004289324
99999.99988272841
100000.00032069923
99999.99912269796
100000.00240097227
99999.9934255359
100000.01801444258
99999.95060004982
100000.13559358793
99999.62741974865
100001.02477536816
99997.18382157102
100007.58087250449
99983.61853647069
99930.29178771953
103117.4737635071
173691.192729623
405981.81047413574
723890.4941357657
944200.6442011478
1.0244475491563615e6
1.0471629508468418e6
1.0590429822315967e6
1.0691511463455483e6
1.0785341400687268e6
1.087303806228039e6
1.0954875842261866e6
1.1031003198902928e6
1.1101492237007436e6
1.116633010601745e6
1.1225455147005767e6
1.1278654104993916e6
1.1325890362856332e6
1.1366321457509666e6
1.1401519948557457e6
1.1425108957353234e6
1.1458346865924704e6
1.1424121389562034e6
1.1617424197296894e6
99999.999999997
100000.00000000795
99999.99999997778
100000.0000000591
99999.99999983989
100000.00000043093
99999.99999883931
100000.00000311964
99999.9999916219
100000.00002246766
99999.99993982138
100000.00016096243
99999.99957006301
100000.00114671832
99999.99694602242
100000.00812111735
99999.97843765533
100000.05716099242
99999.8487073612
100000.39966104693
99998.94978866726
100002.65576551529
99995.62218688872
99948.88384393098
101577.62594437758
157480.42058713923
369359.61010322423
685143.2204406747
921953.9899232354
1.0147953857009815e6
1.0407713150924294e6
1.0528342402266695e6
1.06260704895725e6
1.071566406738748e6
1.0798725861171607e6
1.0875563644515479e6
1.0946321425843397e6
1.1011065685327456e6
1.1069781288372315e6
1.112240561524145e6
1.116873947607424e6
1.1208750278860154e6
1.124168451962935e6
1.126908379918695e6
1.1285054423309998e6
1.1310875077284572e6
1.126877017815943e6
1.14756107097701e6
99999.9999999985
100000.00000000343
99999.9999999905
100000.00000002368
99999.99999993821
100000.00000015677
99999.99999960233
100000.00000099331
99999.99999755321
100000.00000590702
99999.9999861104
100000.0000314334
99999.99993296847
100000.00012860092
99999.99980641349
100000.00007248217
100000.0011224758
99999.9931121382
100000.02988056233
99999.88625435725
100000.40577126632
99998.57083561296
100005.81609841863
99957.89984944955
100579.3455204662
142557.02195617557
331243.9346444893
641344.1103127443
894984.4486130751
1.0030447429821724e6
1.0335346059466345e6
1.0460074985998467e6
1.0554296027319625e6
1.0639057328648195e6
1.0716736990447294e6
1.078768873300062e6
1.085202588830556e6
1.0909773916529652e6
1.0960873840880152e6
1.1005217401719035e6
1.1042576214749184e6
1.1072896495569148e6
1.1095509689031572e6
1.111205403251883e6
1.1117206582176345e6
1.1132727281656682e6
1.1079947243214902e6
1.130456605071038e6
99999.99999999987
99999.99999999999
99999.99999999988
99999.99999999783
100000.00000000982
99999.99999995902
100000.00000015095
99999.99999947198
100000.00000177433
99999.99999418411
100000.00001869597
99999.99994076004
100000.00018557238
99999.99942396025
100000.00177485998
99999.99456471496
100000.01656064791
99999.94975491693
100000.15190590087
99999.54207402327
100001.37773419288
99995.85172039752
100012.64539652843
99960.85550741873
100043.89320298364
129537.6089406263
292663.352330213
592686.297580066
862543.5434381855
988638.3455650187
1.0253119276320479e6
1.0385571238396663e6
1.047638140193613e6
1.0555734763064287e6
1.0627255587264777e6
1.0691376144252876e6
1.0748142545596885e6
1.0797481255510387e6
1.0839208422488072e6
1.0873055668419898e6
1.0898595299806555e6
1.0915505580956317e6
1.092281331799715e6
1.092161881440811e6
1.0906527552370855e6
1.0899140141550158e6
1.081958936462848e6
1.1056296612706042e6
100000.00000000036
99999.99999999792
100000.00000000601
99999.9999999817
100000.00000005368
99999.99999983892
100000.00000047864
99999.99999857754
100000.00000421518
99999.99998752547
100000.00003685529
99999.99989124898
100000.00032053441
99999.99905612033
100000.00277734187
99999.99183254928
100000.02400806373
99999.92944811811
100000.207303861
99999.39085785055
100001.7902071521
99994.74153870669
100015.25700247574
99963.1349321651
99840.99885524916
118890.17025431157
254819.4674952748
539666.8123339708
823897.6283158128
970854.5534731832
1.0158885654594497e6
1.0304667773482366e6
1.0392587542541163e6
1.0466029589871098e6
1.0530619904320762e6
1.0586945363158504e6
1.0634946711747174e6
1.067438403581479e6
1.0704859048888842e6
1.0725832895743086e6
1.0736570056214265e6
1.073637216695657e6
1.0724013896855614e6
1.0700467809762906e6
1.0661011866663022e6
1.062849708062781e6
1.0522678029780476e6
1.0787850675968933e6
100000.00000000093
99999.99999999684
100000.0000000087
99999.99999997458
100000.00000007298
99999.99999978839
100000.00000060911
99999.99999824217
100000.00000506804
99999.99998538363
100000.00004214568
99999.99987846817
100000.00035046361
99999.99898923445
100000.00291566431
99999.99158725434
100000.02428205722
99999.92988373795
100000.20257151785
99999.41439670014
100001.69384263545
99995.10576354607
100013.86775417924
99968.98923761396
99826.3895967609
110852.17222344757
219032.43790295668
483159.54546243657
778422.0311304508
948788.7487746562
1.0049414809011008e6
1.0216982548174011e6
1.0303224497738738e6
1.0370402193743037e6
1.0427339770596456e6
1.047493248505121e6
1.0512976558171415e6
1.0540969702498636e6
1.0558140841096854e6
1.056341505049066e6
1.055525632021025e6
1.0531753851307917e6
1.0489715371352665e6
1.0426667633715806e6
1.0332376790279606e6
1.0220835674641698e6
999745.3460490402
1.0178312938515801e6
100000.00000000099
99999.99999999667
100000.00000000905
99999.99999997402
100000.00000007336
99999.99999979162
100000.00000058954
99999.99999832953
100000.00000472907
99999.99998660745
100000.00003791858
99999.99989264496
100000.00030390707
99999.99913976408
100000.00243471746
99999.99310970731
100000.01949790803
99999.94482963638
100000.15609845759
99999.5583589391
100001.24919573875
99996.47494453174
100009.71164530267
99979.32972536447
99880.59410056182
105372.44788882682
186645.22136240138
424465.43739738164
725732.20779764
921354.8005586767
991993.9880894652
1.0121734917581152e6
1.0208610330103383e6
1.0269441311011758e6
1.031811948039694e6
1.0356146557259844e6
1.0383165204092792e6
1.0398334473231094e6
1.0400384901173974e6
1.038756044600919e6
1.0357406421752868e6
1.0306772743004289e6
1.0231040527362841e6
1.0126444728016348e6
998310.3770393196
981827.1320660433
954057.5153026496
977210.1665283409
100000.0000000008
99999.99999999699
100000.00000000764
99999.99999997762
100000.00000006161
99999.99999982776
100000.00000047825
99999.99999867009
100000.00000369211
99999.99998975689
100000.00002838208
99999.999921455
100000.00021703649
99999.99940130067
100000.00164826833
99999.995472479
100000.0124036221
99999.96612313726
100000.0921918325
99999.75018428171
100000.67326830619
99998.2023490215
100004.617995167
99991.6507403834
99932.94493247672
102109.04524250032
158880.38931857032
365319.7119987771
665848.3790122876
887324.2853857506
976360.9834891143
1.001746690984822e6
1.0108990171731104e6
1.0163840995637635e6
1.020384553476604e6
1.0231648989970117e6
1.0246780452187989e6
1.0247982242019245e6
1.0233325401244081e6
1.0200065160277028e6
1.0144097914776936e6
1.0059337117864832e6
993550.3653313813
975680.2930464532
948627.7305833383
907477.1818920895
828641.0042680817
699833.3682037666
100000.00000000071
99999.99999999747
100000.00000000584
99999.99999998341
100000.00000004465
99999.99999987773
100000.00000033154
99999.99999910056
100000.00000242847
99999.99999346159
100000.00001752362
99999.9999532675
100000.00012386114
99999.99967415752
100000.00084926958
99999.99781231966
100000.00555018822
99999.98620331899
100000.0333314665
99999.92282059186
100000.1666465345
99999.68782612098
100000.33402985596
100002.04111675207
99961.39991616261
100504.46437048244
136649.85497093422
307833.30847088096
599378.1507698235
845426.5715666768
957092.0524792641
990163.6025237341
1.0004401404249961e6
1.0054357064649363e6
1.0085568473653126e6
1.0102756377348348e6
1.0105492331270216e6
1.0092082090273859e6
1.0059965240676785e6
1.0005365149135364e6
992260.271569248
980306.3581885931
963241.0295813608
938837.9125271128
902544.9431703453
848412.6524326584
756918.5692943191
619978.5235906765
100000.00000000026
99999.99999999849
100000.0000000038
99999.9999999893
100000.00000002777
99999.99999992628
100000.0000001926
99999.99999949793
100000.00000129198
99999.9999967104
100000.000008245
99999.9999797458
100000.000048367
99999.99988919542
100000.00023740022
99999.99955131525
100000.00061412234
100000.0001941492
99999.9937392029
100000.03465738772
99999.85145952528
100000.57223696569
99997.9045483469
100007.63817930971
99972.97608775813
99929.02962808326
120342.91308612018
254347.185958757
527682.6049784758
794531.2927426929
932928.1175788166
977004.860671905
989445.6752884508
994172.3483300703
996444.0619857237
997095.79243604
996120.534426045
993319.5166390107
988382.092790522
980854.2529266117
970062.3803277697
955008.4974426219
934110.5182983069
905042.4974439141
863558.3310953398
804714.813050166
715406.9959010133
594179.1369272856
100000.00000000016
99999.99999999908
100000.00000000214
99999.9999999942
100000.00000001432
99999.99999996423
100000.0000000867
99999.99999979336
100000.00000047158
99999.99999898311
100000.00000197005
99999.99999700824
100000.00000108908
100000.00001799689
99999.99988874204
100000.00048771514
99999.99812383714
100000.00673408333
99999.97684575302
100000.07732248573
99999.74715968463
100000.81397922836
99997.4104352536
100008.0610840411
99980.51987042867
99842.26228292153
109667.67495196834
207188.16830016792
452971.8729037247
733920.7020387739
902297.3155998669
961611.1205343149
977800.7806862275
982651.911759348
984162.5270065955
983779.1424829063
981589.6453675522
977388.51945239
970831.204038011
961421.9316760864
948445.207468116
930879.6531508225
907194.0668519647
875280.7450853788
831663.2784095211
772783.9219285455
690628.1856183466
586810.4988672858
100000.00000000025
99999.9999999996
100000.000000001
99999.99999999756
100000.00000000522
99999.99999998893
100000.00000002031
99999.99999997052
100000.00000000247
100000.00000021551
99999.99999877115
100000.00000518214
99999.99998063191
100000.00006772832
99999.9997729644
100000.00073884583
99999.99764825581
100000.00735577384
99999.97732271608
100000.06904794431
99999.7920914544
100000.61950805613
99998.17600349712
100005.1772186103
99989.73769570894
99898.57309222348
103658.17968204503
168330.58357455637
378270.3350972723
663635.2539904561
863389.523048067
942992.7437036079
965263.9517375379
970896.8832280303
971818.4450730317
970472.3633931376
967143.0688566226
961648.5823620214
953636.6497093713
942604.1592380964
927848.218263149
908405.8937294331
882913.0332880012
849612.1849823517
805869.3946805717
749317.8912910132
675371.6069346686
586436.5105512706
100000.00000000017
99999.99999999983
100000.00000000028
99999.9999999994
100000.00000000017
100000.00000000147
99999.99999998868
100000.00000004884
99999.99999981545
100000.00000064216
99999.99999786634
100000.0000068483
99999.9999785694
100000.00006569002
99999.99980214458
100000.00058656759
99999.99828698981
100000.00492784148
99999.98604816367
100000.03880347482
99999.89432949276
100000.28014914203
99999.28642034234
100001.63598041944
99998.73515581705
99951.01204633518
100914.72368508273
138987.20728335888
307201.471348904
584840.3982197087
814363.3830094347
919741.0649890805
951395.1276200666
958865.4394846667
959494.6633550382
957305.7155822408
952942.8434961699
946294.3852142622
937026.3945719104
924657.6731022717