# vtk DataFile Version 2.0
JuliaCFD
ASCII
DATASET UNSTRUCTURED_GRID

POINTS 32898 float
0.0 0.0 -0.05
0.0125 0.0 -0.05
0.025 0.0 -0.05
0.0375 0.0 -0.05
0.05 0.0 -0.05
0.0625 0.0 -0.05
0.075 0.0 -0.05
0.0875 0.0 -0.05
0.1 0.0 -0.05
0.1125 0.0 -0.05
0.125 0.0 -0.05
0.1375 0.0 -0.05
0.15 0.0 -0.05
0.1625 0.0 -0.05
0.175 0.0 -0.05
0.1875 0.0 -0.05
0.2 0.0 -0.05
0.2125 0.0 -0.05
0.225 0.0 -0.05
0.2375 0.0 -0.05
0.25 0.0 -0.05
0.2625 0.0 -0.05
0.275 0.0 -0.05
0.2875 0.0 -0.05
0.3 0.0 -0.05
0.3125 0.0 -0.05
0.325 0.0 -0.05
0.3375 0.0 -0.05
0.35 0.0 -0.05
0.3625 0.0 -0.05
0.375 0.0 -0.05
0.3875 0.0 -0.05
0.4 0.0 -0.05
0.4125 0.0 -0.05
0.425 0.0 -0.05
0.4375 0.0 -0.05
0.45 0.0 -0.05
0.4625 0.0 -0.05
0.475 0.0 -0.05
0.4875 0.0 -0.05
0.5 0.0 -0.05
0.5125 0.0 -0.05
0.525 0.0 -0.05
0.5375 0.0 -0.05
0.55 0.0 -0.05
0.5625 0.0 -0.05
0.575 0.0 -0.05
0.5875 0.0 -0.05
0.6 0.0 -0.05
0.0 0.0125 -0.05
0.0125 0.0125 -0.05
0.025 0.0125 -0.05
0.0375 0.0125 -0.05
0.05 0.0125 -0.05
0.0625 0.0125 -0.05
0.075 0.0125 -0.05
0.0875 0.0125 -0.05
0.1 0.0125 -0.05
0.1125 0.0125 -0.05
0.125 0.0125 -0.05
0.1375 0.0125 -0.05
0.15 0.0125 -0.05
0.1625 0.0125 -0.05
0.175 0.0125 -0.05
0.1875 0.0125 -0.05
0.2 0.0125 -0.05
0.2125 0.0125 -0.05
0.225 0.0125 -0.05
0.2375 0.0125 -0.05
0.25 0.0125 -0.05
0.2625 0.0125 -0.05
0.275 0.0125 -0.05
0.2875 0.0125 -0.05
0.3 0.0125 -0.05
0.3125 0.0125 -0.05
0.325 0.0125 -0.05
0.3375 0.0125 -0.05
0.35 0.0125 -0.05
0.3625 0.0125 -0.05
0.375 0.0125 -0.05
0.3875 0.0125 -0.05
0.4 0.0125 -0.05
0.4125 0.0125 -0.05
0.425 0.0125 -0.05
0.4375 0.0125 -0.05
0.45 0.0125 -0.05
0.4625 0.0125 -0.05
0.475 0.0125 -0.05
0.4875 0.0125 -0.05
0.5 0.0125 -0.05
0.5125 0.0125 -0.05
0.525 0.0125 -0.05
0.5375 0.0125 -0.05
0.55 0.0125 -0.05
0.5625 0.0125 -0.05
0.575 0.0125 -0.05
0.5875 0.0125 -0.05
0.6 0.0125 -0.05
0.0 0.025 -0.05
0.0125 0.025 -0.05
0.025 0.025 -0.05
0.0375 0.025 -0.05
0.05 0.025 -0.05
0.0625 0.025 -0.05
0.075 0.025 -0.05
0.0875 0.025 -0.05
0.1 0.025 -0.05
0.1125 0.025 -0.05
0.125 0.025 -0.05
0.1375 0.025 -0.05
0.15 0.025 -0.05
0.1625 0.025 -0.05
0.175 0.025 -0.05
0.1875 0.025 -0.05
0.2 0.025 -0.05
0.2125 0.025 -0.05
0.225 0.025 -0.05
0.2375 0.025 -0.05
0.25 0.025 -0.05
0.2625 0.025 -0.05
0.275 0.025 -0.05
0.2875 0.025 -0.05
0.3 0.025 -0.05
0.3125 0.025 -0.05
0.325 0.025 -0.05
0.3375 0.025 -0.05
0.35 0.025 -0.05
0.3625 0.025 -0.05
0.375 0.025 -0.05
0.3875 0.025 -0.05
0.4 0.025 -0.05
0.4125 0.025 -0.05
0.425 0.025 -0.05
0.4375 0.025 -0.05
0.45 0.025 -0.05
0.4625 0.025 -0.05
0.475 0.025 -0.05
0.4875 0.025 -0.05
0.5 0.025 -0.05
0.5125 0.025 -0.05
0.525 0.025 -0.05
0.5375 0.025 -0.05
0.55 0.025 -0.05
0.5625 0.025 -0.05
0.575 0.025 -0.05
0.5875 0.025 -0.05
0.6 0.025 -0.05
0.0 0.0375 -0.05
0.0125 0.0375 -0.05
0.025 0.0375 -0.05
0.0375 0.0375 -0.05
0.05 0.0375 -0.05
0.0625 0.0375 -0.05
0.075 0.0375 -0.05
0.0875 0.0375 -0.05
0.1 0.0375 -0.05
0.1125 0.0375 -0.05
0.125 0.0375 -0.05
0.1375 0.0375 -0.05
0.15 0.0375 -0.05
0.1625 0.0375 -0.05
0.175 0.0375 -0.05
0.1875 0.0375 -0.05
0.2 0.0375 -0.05
0.2125 0.0375 -0.05
0.225 0.0375 -0.05
0.2375 0.0375 -0.05
0.25 0.0375 -0.05
0.2625 0.0375 -0.05
0.275 0.0375 -0.05
0.2875 0.0375 -0.05
0.3 0.0375 -0.05
0.3125 0.0375 -0.05
0.325 0.0375 -0.05
0.3375 0.0375 -0.05
0.35 0.0375 -0.05
0.3625 0.0375 -0.05
0.375 0.0375 -0.05
0.3875 0.0375 -0.05
0.4 0.0375 -0.05
0.4125 0.0375 -0.05
0.425 0.0375 -0.05
0.4375 0.0375 -0.05
0.45 0.0375 -0.05
0.4625 0.0375 -0.05
0.475 0.0375 -0.05
0.4875 0.0375 -0.05
0.5 0.0375 -0.05
0.5125 0.0375 -0.05
0.525 0.0375 -0.05
0.5375 0.0375 -0.05
0.55 0.0375 -0.05
0.5625 0.0375 -0.05
0.575 0.0375 -0.05
0.5875 0.0375 -0.05
0.6 0.0375 -0.05
0.0 0.05 -0.05
0.0125 0.05 -0.05
0.025 0.05 -0.05
0.0375 0.05 -0.05
0.05 0.05 -0.05
0.0625 0.05 -0.05
0.075 0.05 -0.05
0.0875 0.05 -0.05
0.1 0.05 -0.05
0.1125 0.05 -0.05
0.125 0.05 -0.05
0.1375 0.05 -0.05
0.15 0.05 -0.05
0.1625 0.05 -0.05
0.175 0.05 -0.05
0.1875 0.05 -0.05
0.2 0.05 -0.05
0.2125 0.05 -0.05
0.225 0.05 -0.05
0.2375 0.05 -0.05
0.25 0.05 -0.05
0.2625 0.05 -0.05
0.275 0.05 -0.05
0.2875 0.05 -0.05
0.3 0.05 -0.05
0.3125 0.05 -0.05
0.325 0.05 -0.05
0.3375 0.05 -0.05
0.35 0.05 -0.05
0.3625 0.05 -0.05
0.375 0.05 -0.05
0.3875 0.05 -0.05
0.4 0.05 -0.05
0.4125 0.05 -0.05
0.425 0.05 -0.05
0.4375 0.05 -0.05
0.45 0.05 -0.05
0.4625 0.05 -0.05
0.475 0.05 -0.05
0.4875 0.05 -0.05
0.5 0.05 -0.05
0.5125 0.05 -0.05
0.525 0.05 -0.05
0.5375 0.05 -0.05
0.55 0.05 -0.05
0.5625 0.05 -0.05
0.575 0.05 -0.05
0.5875 0.05 -0.05
0.6 0.05 -0.05
0.0 0.0625 -0.05
0.0125 0.0625 -0.05
0.025 0.0625 -0.05
0.0375 0.0625 -0.05
0.05 0.0625 -0.05
0.0625 0.0625 -0.05
0.075 0.0625 -0.05
0.0875 0.0625 -0.05
0.1 0.0625 -0.05
0.1125 0.0625 -0.05
0.125 0.0625 -0.05
0.1375 0.0625 -0.05
0.15 0.0625 -0.05
0.1625 0.0625 -0.05
0.175 0.0625 -0.05
0.1875 0.0625 -0.05
0.2 0.0625 -0.05
0.2125 0.0625 -0.05
0.225 0.0625 -0.05
0.2375 0.0625 -0.05
0.25 0.0625 -0.05
0.2625 0.0625 -0.05
0.275 0.0625 -0.05
0.2875 0.0625 -0.05
0.3 0.0625 -0.05
0.3125 0.0625 -0.05
0.325 0.0625 -0.05
0.3375 0.0625 -0.05
0.35 0.0625 -0.05
0.3625 0.0625 -0.05
0.375 0.0625 -0.05
0.3875 0.0625 -0.05
0.4 0.0625 -0.05
0.4125 0.0625 -0.05
0.425 0.0625 -0.05
0.4375 0.0625 -0.05
0.45 0.0625 -0.05
0.4625 0.0625 -0.05
0.475 0.0625 -0.05
0.4875 0.0625 -0.05
0.5 0.0625 -0.05
0.5125 0.0625 -0.05
0.525 0.0625 -0.05
0.5375 0.0625 -0.05
0.55 0.0625 -0.05
0.5625 0.0625 -0.05
0.575 0.0625 -0.05
0.5875 0.0625 -0.05
0.6 0.0625 -0.05
0.0 0.075 -0.05
0.0125 0.075 -0.05
0.025 0.075 -0.05
0.0375 0.075 -0.05
0.05 0.075 -0.05
0.0625 0.075 -0.05
0.075 0.075 -0.05
0.0875 0.075 -0.05
0.1 0.075 -0.05
0.1125 0.075 -0.05
0.125 0.075 -0.05
0.1375 0.075 -0.05
0.15 0.075 -0.05
0.1625 0.075 -0.05
0.175 0.075 -0.05
0.1875 0.075 -0.05
0.2 0.075 -0.05
0.2125 0.075 -0.05
0.225 0.075 -0.05
0.2375 0.075 -0.05
0.25 0.075 -0.05
0.2625 0.075 -0.05
0.275 0.075 -0.05
0.2875 0.075 -0.05
0.3 0.075 -0.05
0.3125 0.075 -0.05
0.325 0.075 -0.05
0.3375 0.075 -0.05
0.35 0.075 -0.05
0.3625 0.075 -0.05
0.375 0.075 -0.05
0.3875 0.075 -0.05
0.4 0.075 -0.05
0.4125 0.075 -0.05
0.425 0.075 -0.05
0.4375 0.075 -0.05
0.45 0.075 -0.05
0.4625 0.075 -0.05
0.475 0.075 -0.05
0.4875 0.075 -0.05
0.5 0.075 -0.05
0.5125 0.075 -0.05
0.525 0.075 -0.05
0.5375 0.075 -0.05
0.55 0.075 -0.05
0.5625 0.075 -0.05
0.575 0.075 -0.05
0.5875 0.075 -0.05
0.6 0.075 -0.05
0.0 0.0875 -0.05
0.0125 0.0875 -0.05
0.025 0.0875 -0.05
0.0375 0.0875 -0.05
0.05 0.0875 -0.05
0.0625 0.0875 -0.05
0.075 0.0875 -0.05
0.0875 0.0875 -0.05
0.1 0.0875 -0.05
0.1125 0.0875 -0.05
0.125 0.0875 -0.05
0.1375 0.0875 -0.05
0.15 0.0875 -0.05
0.1625 0.0875 -0.05
0.175 0.0875 -0.05
0.1875 0.0875 -0.05
0.2 0.0875 -0.05
0.2125 0.0875 -0.05
0.225 0.0875 -0.05
0.2375 0.0875 -0.05
0.25 0.0875 -0.05
0.2625 0.0875 -0.05
0.275 0.0875 -0.05
0.2875 0.0875 -0.05
0.3 0.0875 -0.05
0.3125 0.0875 -0.05
0.325 0.0875 -0.05
0.3375 0.0875 -0.05
0.35 0.0875 -0.05
0.3625 0.0875 -0.05
0.375 0.0875 -0.05
0.3875 0.0875 -0.05
0.4 0.0875 -0.05
0.4125 0.0875 -0.05
0.425 0.0875 -0.05
0.4375 0.0875 -0.05
0.45 0.0875 -0.05
0.4625 0.0875 -0.05
0.475 0.0875 -0.05
0.4875 0.0875 -0.05
0.5 0.0875 -0.05
0.5125 0.0875 -0.05
0.525 0.0875 -0.05
0.5375 0.0875 -0.05
0.55 0.0875 -0.05
0.5625 0.0875 -0.05
0.575 0.0875 -0.05
0.5875 0.0875 -0.05
0.6 0.0875 -0.05
0.0 0.1 -0.05
0.0125 0.1 -0.05
0.025 0.1 -0.05
0.0375 0.1 -0.05
0.05 0.1 -0.05
0.0625 0.1 -0.05
0.075 0.1 -0.05
0.0875 0.1 -0.05
0.1 0.1 -0.05
0.1125 0.1 -0.05
0.125 0.1 -0.05
0.1375 0.1 -0.05
0.15 0.1 -0.05
0.1625 0.1 -0.05
0.175 0.1 -0.05
0.1875 0.1 -0.05
0.2 0.1 -0.05
0.2125 0.1 -0.05
0.225 0.1 -0.05
0.2375 0.1 -0.05
0.25 0.1 -0.05
0.2625 0.1 -0.05
0.275 0.1 -0.05
0.2875 0.1 -0.05
0.3 0.1 -0.05
0.3125 0.1 -0.05
0.325 0.1 -0.05
0.3375 0.1 -0.05
0.35 0.1 -0.05
0.3625 0.1 -0.05
0.375 0.1 -0.05
0.3875 0.1 -0.05
0.4 0.1 -0.05
0.4125 0.1 -0.05
0.425 0.1 -0.05
0.4375 0.1 -0.05
0.45 0.1 -0.05
0.4625 0.1 -0.05
0.475 0.1 -0.05
0.4875 0.1 -0.05
0.5 0.1 -0.05
0.5125 0.1 -0.05
0.525 0.1 -0.05
0.5375 0.1 -0.05
0.55 0.1 -0.05
0.5625 0.1 -0.05
0.575 0.1 -0.05
0.5875 0.1 -0.05
0.6 0.1 -0.05
0.0 0.1125 -0.05
0.0125 0.1125 -0.05
0.025 0.1125 -0.05
0.0375 0.1125 -0.05
0.05 0.1125 -0.05
0.0625 0.1125 -0.05
0.075 0.1125 -0.05
0.0875 0.1125 -0.05
0.1 0.1125 -0.05
0.1125 0.1125 -0.05
0.125 0.1125 -0.05
0.1375 0.1125 -0.05
0.15 0.1125 -0.05
0.1625 0.1125 -0.05
0.175 0.1125 -0.05
0.1875 0.1125 -0.05
0.2 0.1125 -0.05
0.2125 0.1125 -0.05
0.225 0.1125 -0.05
0.2375 0.1125 -0.05
0.25 0.1125 -0.05
0.2625 0.1125 -0.05
0.275 0.1125 -0.05
0.2875 0.1125 -0.05
0.3 0.1125 -0.05
0.3125 0.1125 -0.05
0.325 0.1125 -0.05
0.3375 0.1125 -0.05
0.35 0.1125 -0.05
0.3625 0.1125 -0.05
0.375 0.1125 -0.05
0.3875 0.1125 -0.05
0.4 0.1125 -0.05
0.4125 0.1125 -0.05
0.425 0.1125 -0.05
0.4375 0.1125 -0.05
0.45 0.1125 -0.05
0.4625 0.1125 -0.05
0.475 0.1125 -0.05
0.4875 0.1125 -0.05
0.5 0.1125 -0.05
0.5125 0.1125 -0.05
0.525 0.1125 -0.05
0.5375 0.1125 -0.05
0.55 0.1125 -0.05
0.5625 0.1125 -0.05
0.575 0.1125 -0.05
0.5875 0.1125 -0.05
0.6 0.1125 -0.05
0.0 0.125 -0.05
0.0125 0.125 -0.05
0.025 0.125 -0.05
0.0375 0.125 -0.05
0.05 0.125 -0.05
0.0625 0.125 -0.05
0.075 0.125 -0.05
0.0875 0.125 -0.05
0.1 0.125 -0.05
0.1125 0.125 -0.05
0.125 0.125 -0.05
0.1375 0.125 -0.05
0.15 0.125 -0.05
0.1625 0.125 -0.05
0.175 0.125 -0.05
0.1875 0.125 -0.05
0.2 0.125 -0.05
0.2125 0.125 -0.05
0.225 0.125 -0.05
0.2375 0.125 -0.05
0.25 0.125 -0.05
0.2625 0.125 -0.05
0.275 0.125 -0.05
0.2875 0.125 -0.05
0.3 0.125 -0.05
0.3125 0.125 -0.05
0.325 0.125 -0.05
0.3375 0.125 -0.05
0.35 0.125 -0.05
0.3625 0.125 -0.05
0.375 0.125 -0.05
0.3875 0.125 -0.05
0.4 0.125 -0.05
0.4125 0.125 -0.05
0.425 0.125 -0.05
0.4375 0.125 -0.05
0.45 0.125 -0.05
0.4625 0.125 -0.05
0.475 0.125 -0.05
0.4875 0.125 -0.05
0.5 0.125 -0.05
0.5125 0.125 -0.05
0.525 0.125 -0.05
0.5375 0.125 -0.05
0.55 0.125 -0.05
0.5625 0.125 -0.05
0.575 0.125 -0.05
0.5875 0.125 -0.05
0.6 0.125 -0.05
0.0 0.1375 -0.05
0.0125 0.1375 -0.05
0.025 0.1375 -0.05
0.0375 0.1375 -0.05
0.05 0.1375 -0.05
0.0625 0.1375 -0.05
0.075 0.1375 -0.05
0.0875 0.1375 -0.05
[...]
CELL_DATA 16128
SCALARS P float 1
LOOKUP_TABLE default
100000.00000002279
99999.99999993508
100000.00000017838
99999.99999950266
100000.00000138012
99999.99999616548
100000.0000106435
99999.9999704591
100000.00008195375
99999.99977271406
100000.00063010138
99999.99825382879
100000.00483717916
99999.98660570997
100000.03707307338
99999.89743580685
100000.28360382367
99999.21624681396
100002.16406549637
99994.04006169035
100016.09972720008
99963.742897673
99893.31097932052
106189.44511230449
197818.78002840295
453882.9842443782
770359.8642181597
969311.048954478
1.0346724393447369e6
1.0538248809070757e6
1.0661096727926305e6
1.0774984527770563e6
1.0884400080050412e6
1.0989295710188753e6
1.1089509903617937e6
1.1184918293303645e6
1.1275378107332292e6
1.1360705325013248e6
1.1440635830682658e6
1.1514891554475944e6
1.1582975041067915e6
1.1644786159815548e6
1.1698842033601627e6
1.174758701274058e6
1.1781766530394917e6
1.18268374954736e6
1.1805229053687481e6
1.1945198225121319e6
100000.0000000219
99999.99999993757
100000.00000017147
99999.99999952188
100000.00000132663
99999.99999631346
100000.00001023483
99999.99997158798
100000.00007884072
99999.99978128557
100000.00060654576
99999.99831841752
100000.0046605729
99999.9870869331
100000.0357676535
99999.90095625744
100000.2741857537
99999.24115870199
100002.09926937113
99994.20402039906
100015.71154777304
99964.35385677256
99898.66764840743
105961.83294445113
196584.02449423514
452692.15304351086
772063.010429274
974843.0637981487
1.0423890210555685e6
1.0624600634718754e6
1.0752143638793277e6
1.0868981773965997e6
1.0980642158870944e6
1.1087565746290258e6
1.1189814167157502e6
1.1287349332927642e6
1.1380044518118822e6
1.146769425991462e6
1.154999043769747e6
1.1626593605134946e6
1.1696931160946433e6
1.1760810357409273e6
1.1816651099403112e6
1.186677522430155e6
1.1901833025036603e6
1.1947271956902933e6
1.1924899505013155e6
1.206691577052431e6
100000.00000001973
99999.99999994363
100000.00000015539
99999.99999956696
100000.00000120162
99999.99999665967
100000.0000092761
99999.99997424045
100000.00007150929
99999.99980152823
100000.00055072122
99999.9984721725
100000.00423768385
99999.98824828345
100000.03258354124
99999.90967116218
100000.25037504836
99999.30610559383
100001.92238536497
99994.68474512095
100014.42480272074
99967.31180764074
99904.51885136655
105457.72298619366
193099.23043471278
445829.0057258127
764917.9868012468
969937.7972693058
1.038875465621557e6
1.0591203988405627e6
1.071754792833301e6
1.0832819128603432e6
1.094280718266476e6
1.1047948343982191e6
1.1148296205241936e6
1.1243818700605903e6
1.1334405283184217e6
1.141987327538291e6
1.1499943784665002e6
1.1574310367882268e6
1.1642446757011723e6
1.1704197061355144e6
1.1758078753210504e6
1.180638359599969e6
1.1840089997807362e6
1.1884153032807165e6
1.1861108680905926e6
1.200504851388162e6
100000.00000001682
99999.99999995208
100000.00000013194
99999.99999963176
100000.00000102176
99999.99999715928
100000.00000789038
99999.99997808335
100000.00006086119
99999.99983101359
100000.00046913802
99999.99869772374
100000.00361463538
99999.98996784801
100000.02784190796
99999.92273441033
100000.21441682834
99999.40500419113
100001.65062854381
99995.42988328204
100012.41412804674
99971.98682505285
99913.16787329517
104714.30722533648
187680.9151546644
435191.7223627998
754636.363851244
964452.2782175274
1.0365091008137309e6
1.0575132314691457e6
1.0702692053519427e6
1.0818108419449052e6
1.0927957634638618e6
1.1032835110476855e6
1.1132872942544003e6
1.1228093799863853e6
1.131842855398625e6
1.140372683141899e6
1.1483736309330515e6
1.1558167645116e6
1.162651173829118e6
1.1688595957439446e6
1.1742969523848284e6
1.1791768368247089e6
1.1826200483905715e6
1.1870560803414546e6
1.1847732375555013e6
1.199541943152184e6
100000.00000001337
99999.99999996259
100000.00000010338
99999.99999971132
100000.00000080072
99999.99999777458
100000.00000617918
99999.99998284066
100000.00004764195
99999.9998677293
100000.00036720982
99999.9989805523
100000.00283025685
99999.99214200258
100000.02181902355
99999.93940895546
100000.1682830253
99999.5325518174
100001.29834133617
99996.40060601744
100009.78166985537
99978.16969556909
99923.78345614135
103814.18162366185
180569.7125159257
420827.76649977063
740491.4319641369
956730.1880170465
1.0330271870977628e6
1.0549568735812462e6
1.067734299098879e6
1.0791702279667328e6
1.0900273049464824e6
1.100376990458108e6
1.1102361081639687e6
1.119609847789157e6
1.128494059920605e6
1.1368763276756508e6
1.1447340613081714e6
1.1520404786224766e6
1.1587475485783233e6
1.1648377574811208e6
1.1701728053326497e6
1.1749526041724836e6
1.1783324447775038e6
1.1826751765087976e6
1.1803234729432783e6
1.195503072450261e6
100000.00000000921
99999.99999997379
100000.00000007202
99999.99999979968
100000.0000005549
99999.99999846028
100000.00000426828
99999.99998816574
100000.00003280443
99999.99990906232
100000.00025209169
99999.99930109824
100000.00193792066
99999.99462541693
100000.01490964687
99999.9586257748
100000.11485674113
99999.68101889164
100000.88605609683
99997.54323714538
100006.66152845511
99985.61603693316
99934.65470865091
102855.35889598967
172082.659265907
402940.96115787
722378.5328945541
946699.915188374
1.0286677996400375e6
1.0519133424305196e6
1.0647443009397471e6
1.0760544298988823e6
1.0867594888733653e6
1.096947284968712e6
1.1066387131136318e6
1.115842397753766e6
1.1245576338732692e6
1.1327753780026918e6
1.1404764520461613e6
1.147636894889314e6
1.1542121333125723e6
1.1601844798935538e6
1.16542261101434e6
1.170111248637424e6
1.1734407557424637e6
1.1777058772530204e6
1.1752848967354046e6
1.1909963348830885e6
100000.00000000511
99999.99999998549
100000.00000003977
99999.99999988974
100000.00000030355
99999.99999916238
100000.00000230786
99999.99999364107
100000.00001751188
99999.99995177775
100000.00013277553
99999.99963439799
100000.00100684095
99999.99722648154
100000.00764319772
99999.97892561856
100000.0581478695
99999.8394285016
100000.44367438958
99998.7769059563
100003.2669312474
99993.8672674682
99943.94533912053
101935.62748986595
162600.40098668754
381807.117895336
700134.4043530846
934007.4812472899
1.0232196640827633e6
1.0482598187264741e6
1.0611787893393422e6
1.0723232812994535e6
1.0828274847505016e6
1.092801944260493e6
1.1022714538688108e6
1.1112476707217086e6
1.1197331597597555e6
1.1277222816823537e6
1.1351994959044366e6
1.1421440860724396e6
1.1485156403533071e6
1.1542972932534816e6
1.1593663594226127e6
1.1638944227909616e6
1.1671106839784393e6
1.171247603430271e6
1.1687045737876997e6
1.18505732347794e6
100000.00000000132
99999.99999999629
100000.00000000958
99999.9999999744
100000.00000006727
99999.9999998232
100000.00000045946
99999.99999881205
100000.00000304391
99999.99999227171
100000.00001940444
99999.99995190694
100000.00011731937
99999.99971941957
100000.00065401812
99999.9985278422
100000.00314933505
99999.99379831195
100000.01028996127
99999.99260274501
99999.89700257809
100002.20872568018
99950.28139634828
101138.8362885087
152557.09517744847
357794.43241833086
673625.4609392317
918268.9499015803
1.0164932471715923e6
1.0439623819987428e6
1.0570460509207675e6
1.0679962663788705e6
1.0782561101121022e6
1.0879695454953306e6
1.097165734628551e6
1.1058590701023603e6
1.1140552158663503e6
1.1217519567390208e6
1.1289376267666232e6
1.13559527179891e6
1.1416894885241892e6
1.1472056069297537e6
1.152031380961507e6
1.1563282131350448e6
1.159366874149336e6
1.1633257412256708e6
1.1606026615720948e6
1.1777409120231431e6
99999.9999999981
100000.00000000565
99999.99999998357
100000.00000004667
99999.99999986494
100000.0000003892
99999.9999988768
100000.0000032409
99999.99999064491
100000.00002700153
99999.99992207129
100000.00022485599
99999.99935139605
100000.00187017543
99999.99461010465
100000.01552538411
99999.95530693459
100000.12857460807
99999.6303239568
100001.0635719691
99996.90963361925
100009.72033726091
99953.3434021723
100522.62914427584
142424.0149717074
331378.53503057983
642766.0135377481
899035.3051054633
1.0082340072080109e6
1.0389597969407546e6
1.0523338480417917e6
1.0630668475737132e6
1.0730362142142048e6
1.0824358999199276e6
1.0913004069259628e6
1.099646255801999e6
1.1074815507994266e6
1.1148069486909944e6
1.1216142657282234e6
1.1278901841644987e6
1.1336044879256603e6
1.1387455527408249e6
1.1432128097331899e6
1.147160852093866e6
1.1499052275585798e6
1.1535834323044966e6
1.1505703970064344e6
1.1686574135532137e6
99999.99999999553
100000.00000001273
99999.99999996397
100000.00000010189
99999.99999971183
100000.00000081678
99999.99999768384
100000.00000657195
99999.99998133899
100000.0000530192
99999.99984927465
100000.00042871677
99999.99877996386
100000.00347357798
99999.99010602044
100000.0281930587
99999.91963269455
100000.22917916301
99999.34622247345
100001.86618577788
99994.66288299809
100015.42134131635
99954.18753967516
100110.08021556112
132684.32673755876
303157.3524662746
607556.5996268789
875802.7032188973
998114.211660104
1.0331725810639875e6
1.0470339435235714e6
1.0575375308528082e6
1.0671693718206051e6
1.0761988814768002e6
1.0846678095432734e6
1.0925939092760282e6
1.0999865332898297e6
1.1068480095180362e6
1.1131725382424435e6
1.1189496613509634e6
1.1241540829680348e6
1.1287781773044995e6
1.1327350576189063e6
1.136178311132917e6
1.1384740646279126e6
1.1417377058552937e6
1.138294792865024e6
1.157552092899635e6
99999.99999999384
100000.00000001726
99999.99999995163
100000.00000013632
99999.99999961634
100000.00000108044
99999.99999695453
100000.00000859018
99999.99997575076
100000.00006850196
99999.99980634396
100000.00054786161
99999.99844895255
100000.00439432688
99999.98754125331
100000.03534867046
99999.89963283855
100000.28519037424
99999.18902958212
100002.30779815519
99993.43348142554
100018.49688470797
99954.98620887841
99888.00992156069
123797.19089194131
273858.85369868256
568129.9103951951
848029.7286817502
985711.5329245368
1.0264881808363139e6
1.0411356990398687e6
1.0514149199944935e6
1.0606621504921895e6
1.0692612654621834e6
1.077264773352654e6
1.0846903914341093e6
1.0915466915962484e6
1.0978352701803793e6
1.1035499247652504e6
1.1086798892160782e6
1.1132010830051089e6
1.1171059078599392e6
1.1203162881700832e6
1.1229822507215834e6
1.1245180436466476e6
1.1270393891369412e6
1.1228087729424788e6
1.1434134058921242e6
99999.99999999322
100000.00000001922
99999.99999994639
100000.00000015
99999.99999958009
100000.00000117686
99999.99999669919
100000.0000092639
99999.99997398035
100000.00007313454
99999.999794281
100000.00057910739
99999.99836850035
100000.00460008944
99999.98701898623
100000.03666286048
99999.89635851188
100000.2932552998
99999.16943552728
100002.35434042466
99993.33142944922
100018.56136406898
99958.18999159173
99813.68018039213
116152.05153270523
244336.47463092452
524802.2680343551
815171.134613057
970489.8010262402
1.0187444791972802e6
1.0346224011698271e6
1.0447105516190822e6
1.0535286096446717e6
1.0616344627249588e6
1.06909776004457e6
1.07593467339092e6
1.0821501072254179e6
1.087741365148169e6
1.0926976961724258e6
1.0970035557716438e6
1.1006318187437903e6
1.1035722783792065e6
1.105755465233828e6
1.1073388217684603e6
1.1077978556714777e6
1.109290718767219e6
1.1039885926864077e6
1.1263637611683335e6
99999.99999999334
100000.0000000189
99999.99999994783
100000.00000014501
99999.99999959594
100000.00000112543
99999.99999686232
100000.0000087511
99999.99997557676
100000.0000682012
99999.99980942823
100000.00053284841
99999.99850912226
100000.0041743221
99999.98830361555
100000.03279872636
99999.90795019951
100000.25856628458
99999.27302021699
100002.0455519019
99994.25068987782
100015.83129800305
99965.41930012207
99829.1221449883
110018.35905893362
215546.68101801252
478125.2808879792
776731.4072881067
951783.7104194954
1.009707161816709e6
1.0274644145518536e6
1.0374400259619812e6
1.0457911213231698e6
1.0533401386392945e6
1.0601852018737532e6
1.0663393364705185e6
1.071799602144882e6
1.0765531665532466e6
1.080576645911915e6
1.0838382825939716e6
1.0862911084409088e6
1.0878967441941358e6
1.088557232603656e6
1.088376700490721e6
1.0868150249149825e6
1.0860259206348734e6
1.078049477136379e6
1.1016231519627504e6
99999.99999999405
100000.0000000166
99999.99999995418
100000.00000012628
99999.999999651
100000.00000096402
99999.99999733533
100000.00000736579
99999.99997963288
100000.00005632441
99999.9998442026
100000.00043102767
99999.99880728553
100000.00330106713
99999.99086173858
100000.02530286876
99999.92992203022
100000.19413727669
99999.46203066486
100001.49084943498
99995.87702347653
100011.13896498918
99976.46331540139
99879.04003830385
105501.69737563243
188503.04635086487
428929.915346146
732341.1602472168
928793.5382296413
999040.2640079326
1.0196086039305676e6
1.0296211552605836e6
1.0374810767287378e6
1.0444121367712471e6
1.0505608372639955e6
1.0559362406314467e6
1.0605227336080256e6
1.0642905091433593e6
1.0671946069164071e6
1.069175992436967e6
1.0701571515014763e6
1.070062868821319e6
1.0687661463355783e6
1.0663607330868414e6
1.062370846801951e6
1.05907563440931e6
1.0484759320366054e6
1.0748841270462614e6
99999.99999999531
100000.00000001345
99999.99999996371
100000.00000009913
99999.99999972858
100000.0000007405
99999.9999979792
100000.00000550962
99999.99998498546
100000.00004087902
99999.99988880125
100000.00030215504
99999.99917995898
100000.00222249242
99999.99398603693
100000.01624422285
99999.95621336288
100000.11774811323
99999.68423313525
100000.84382119997
99997.76026507755
100005.74832927746
99989.235491759
99925.49944877106
102521.93026267223
164201.35547683924
378352.3651908149
681856.6103911232
900598.8105595801
986269.7336145113
1.0109621250203167e6
1.0212701984655289e6
1.028638759265295e6
1.0348975401943843e6
1.040275503528186e6
1.0447787507188955e6
1.0483731545199956e6
1.0510021462397682e6
1.052583345740401e6
1.0530045616374821e6
1.05210768698465e6
1.0496972341256533e6
1.0454493496726532e6
1.039113203320756e6
1.0296629273564009e6
1.0184939440805147e6
996172.5938934452
1.0141718333004488e6
99999.99999999629
100000.00000000968
99999.99999997392
100000.0000000699
99999.99999981216
100000.00000050297
99999.99999865497
100000.00000358498
99999.99999047138
100000.00002523341
99999.99993345264
100000.00017463294
99999.99954443643
100000.00117989581
99999.99697107765
100000.00768952562
99999.98075569313
100000.04725880678
99999.8869389365
100000.2602276636
99999.4399833717
100000.98847101064
100000.6775332515
99953.5107711795
100828.74198495578
143512.12675556197
327828.58733329835
625477.5993850612
866203.471277298
970742.502435671
1.00136853962708e6
1.0123952951316527e6
1.0193122772693619e6
1.0248574338710204e6
1.0293995444311021e6
1.032947378991745e6
1.0354437804886833e6
1.0367973205505725e6
1.0368759651165102e6
1.0354994166330665e6
1.0324180133526783e6
1.0273122284231511e6
1.0197157238867382e6
1.0092476482683659e6
994915.221232009
978437.3946553607
950698.2156829755
973772.5544418481
99999.99999999747
100000.00000000608
99999.9999999834
100000.00000004303
99999.99999988735
100000.00000029114
99999.99999925015
100000.00000191283
99999.9999951689
100000.00001203366
99999.99997054486
100000.00007039262
99999.99983740499
100000.00035644489
99999.99928573018
100000.00118272475
99999.99904879973
99999.99582459386
100000.03157131796
99999.85354474759
100000.58165742552
99997.83611993481
100008.13645682916
99966.03626357674
100060.9552387913
127045.10643920669
279042.8306208663
563871.2189964728
824626.8187093482
951587.726190183
990573.9462742205
1.0029855510172009e6
1.0095545893414026e6
1.0143658027408052e6
1.0180218339080398e6
1.020547780883129e6
1.0218608060824369e6
1.0218256687373015e6
1.0202449435632757e6
1.0168395936998079e6
1.0111952187878111e6
1.0026999817127638e6
990323.8469259536
972487.6753696721
945501.5236706317
904466.049593562
825871.6246943818
697466.1907858907
99999.9999999984
100000.00000000343
99999.9999999912
100000.00000002181
99999.99999994635
100000.0000001288
99999.99999969722
100000.0000006823
99999.99999855185
100000.00000274801
99999.9999959836
100000.00000084996
100000.00002704054
99999.9998408447
100000.00068275888
99999.9974129449
100000.00917140138
99999.96880474495
100000.10316782263
99999.66560126489
100001.06811680982
99996.62316013205
100010.5243546246
99972.90633154893
99837.93833000412
115010.88257996149
233817.18628921596
498276.7916687349
775051.0987758983
927692.2556186949
978180.8170429576
992993.6971075382
999418.0751341278
1.0035071801669531e6
1.0062483392111434e6
1.0077110351847772e6
1.0077899988816796e6
1.0063032868981909e6
1.0029892848788612e6
997466.4795510125
989163.4326994785
977216.8314814166
960192.8570904406
935868.4037735673
899701.2160184527
845759.6114540464
754589.9177571533
618109.5278297242
99999.9999999992
100000.00000000137
99999.9999999965
100000.00000000698
99999.99999998524
100000.000000024
99999.99999997726
99999.99999993785
100000.00000051883
99999.9999975889
100000.0000093965
99999.9999663667
100000.00011442095
99999.99962363289
100000.00120854203
99999.9961888461
100000.01184981382
99999.96357351415
100000.11092483772
99999.66489605748
100001.00536372769
99997.00626228363
100008.67814826871
99981.19508970185
99850.70773627545
107133.41591763472
193935.19969798392
430558.7227218062
717026.9537842956
897709.1944306738
963588.111209938
982309.0411090093
988945.0596956077
992371.5984853497
994196.6849143978
994585.6701567698
993420.7612610921
990484.2213196048
985458.2679796738
977884.9183846562
967087.730692197
952067.5744635443
931243.1374605031
902292.2186430206
860977.7697472587
802368.9100973422
713407.1157954169
592618.9876663409
99999.99999999987
100000.00000000019
99999.99999999958
99999.99999999895
100000.00000000652
99999.99999997046
100000.00000011103
99999.9999996097
100000.00000130142
99999.99999579685
100000.00001324322
99999.99995903879
100000.0001247954
99999.99962454592
100000.00111727115
99999.9967077474
100000.00961314583
99999.97217498551
100000.07984163114
99999.7729415464
100000.6394572417
99998.2229834157
100004.72648048503
99991.59163198077
99913.47178036057
102678.46588933475
160900.1024603377
363171.65847630345
650723.2806511851
860127.8081464403
945920.8633608264
970716.962250214
978152.7417252838
981046.8363677466
981988.351850122
981324.9952012486
978949.9210718377
974623.0405706917
967990.9352385063
958553.2931349312
945591.9724827295
928084.5482180123
904500.4524106524
872734.7698103782
829317.4842953151
770697.2473483146
688886.3616144304
585477.0923000494
100000.00000000006
99999.99999999955
100000.00000000109
99999.99999999563
100000.00000001401
99999.99999995422
100000.00000014224
99999.99999956519
100000.00000130523
99999.99999613351
100000.000011302
99999.999967347
100000.00009325695
99999.99973671032
100000.00073437976
99999.99797858346
100000.005480572
99999.98540639783
100000.03799095555
99999.90402478729
100000.23219832903
99999.47809523123
100000.95048872294
100000.71059922763
99956.10131490842
100627.47253202823
135641.68935509693
299006.35978378943
577185.5983097097
813441.0268812317
923962.9968245139
957841.7878493158
967010.7160724545
969608.3168800161
969740.3143986562
968076.7561079173
964562.1667246781
958951.1198933081
950877.4568975731
939832.7739105669
925111.2625705076
905748.5621146166
880380.4187885327
847250.639191601
803728.658883584
747449.4909769032
673840.2040129063
585285.5728959257
100000.00000000006
99999.99999999937
100000.00000000143
99999.9999999951
100000.00000001368
99999.99999995927
100000.0000001173
99999.99999966456
100000.00000094339
99999.99999737891
100000.0000071724
99999.99998067982
100000.00005106843
99999.99986808865
100000.00033063424
99999.99920533835
100000.00179064633
99999.99640231045
100000.00551361644
99999.99910664643
99999.9563986646
100000.26866582313
99998.75874174347
100005.45838015326
99975.55847383357
99950.40622883299
118232.08841308
241095.95739768076
498533.1914689802
756438.8923679187
896121.3392480507
943070.9632561309
955408.0759063384
958105.8939979094
957556.1622677348
954975.0387698743
950418.8610563371
943660.9903108316
934343.2100381434
921977.0668780209
905907.0736255203