# vtk DataFile Version 2.0
JuliaCFD
ASCII
DATASET UNSTRUCTURED_GRID

POINTS 32898 float
0.0 0.0 -0.05
0.0125 0.0 -0.05
0.025 0.0 -0.05
0.0375 0.0 -0.05
0.05 0.0 -0.05
0.0625 0.0 -0.05
0.075 0.0 -0.05
0.0875 0.0 -0.05
0.1 0.0 -0.05
0.1125 0.0 -0.05
0.125 0.0 -0.05
0.1375 0.0 -0.05
0.15 0.0 -0.05
0.1625 0.0 -0.05
0.175 0.0 -0.05
0.1875 0.0 -0.05
0.2 0.0 -0.05
0.2125 0.0 -0.05
0.225 0.0 -0.05
0.2375 0.0 -0.05
0.25 0.0 -0.05
0.2625 0.0 -0.05
0.275 0.0 -0.05
0.2875 0.0 -0.05
0.3 0.0 -0.05
0.3125 0.0 -0.05
0.325 0.0 -0.05
0.3375 0.0 -0.05
0.35 0.0 -0.05
0.3625 0.0 -0.05
0.375 0.0 -0.05
0.3875 0.0 -0.05
0.4 0.0 -0.05
0.4125 0.0 -0.05
0.425 0.0 -0.05
0.4375 0.0 -0.05
0.45 0.0 -0.05
0.4625 0.0 -0.05
0.475 0.0 -0.05
0.4875 0.0 -0.05
0.5 0.0 -0.05
0.5125 0.0 -0.05
0.525 0.0 -0.05
0.5375 0.0 -0.05
0.55 0.0 -0.05
0.5625 0.0 -0.05
0.575 0.0 -0.05
0.5875 0.0 -0.05
0.6 0.0 -0.05
0.0 0.0125 -0.05
0.0125 0.0125 -0.05
0.025 0.0125 -0.05
0.0375 0.0125 -0.05
0.05 0.0125 -0.05
0.0625 0.0125 -0.05
0.075 0.0125 -0.05
0.0875 0.0125 -0.05
0.1 0.0125 -0.05
0.1125 0.0125 -0.05
0.125 0.0125 -0.05
0.1375 0.0125 -0.05
0.15 0.0125 -0.05
0.1625 0.0125 -0.05
0.175 0.0125 -0.05
0.1875 0.0125 -0.05
0.2 0.0125 -0.05
0.2125 0.0125 -0.05
0.225 0.0125 -0.05
0.2375 0.0125 -0.05
0.25 0.0125 -0.05
0.2625 0.0125 -0.05
0.275 0.0125 -0.05
0.2875 0.0125 -0.05
0.3 0.0125 -0.05
0.3125 0.0125 -0.05
0.325 0.0125 -0.05
0.3375 0.0125 -0.05
0.35 0.0125 -0.05
0.3625 0.0125 -0.05
0.375 0.0125 -0.05
0.3875 0.0125 -0.05
0.4 0.0125 -0.05
0.4125 0.0125 -0.05
0.425 0.0125 -0.05
0.4375 0.0125 -0.05
0.45 0.0125 -0.05
0.4625 0.0125 -0.05
0.475 0.0125 -0.05
0.4875 0.0125 -0.05
0.5 0.0125 -0.05
0.5125 0.0125 -0.05
0.525 0.0125 -0.05
0.5375 0.0125 -0.05
0.55 0.0125 -0.05
0.5625 0.0125 -0.05
0.575 0.0125 -0.05
0.5875 0.0125 -0.05
0.6 0.0125 -0.05
0.0 0.025 -0.05
0.0125 0.025 -0.05
0.025 0.025 -0.05
0.0375 0.025 -0.05
0.05 0.025 -0.05
0.0625 0.025 -0.05
0.075 0.025 -0.05
0.0875 0.025 -0.05
0.1 0.025 -0.05
0.1125 0.025 -0.05
0.125 0.025 -0.05
0.1375 0.025 -0.05
0.15 0.025 -0.05
0.1625 0.025 -0.05
0.175 0.025 -0.05
0.1875 0.025 -0.05
0.2 0.025 -0.05
0.2125 0.025 -0.05
0.225 0.025 -0.05
0.2375 0.025 -0.05
0.25 0.025 -0.05
0.2625 0.025 -0.05
0.275 0.025 -0.05
0.2875 0.025 -0.05
0.3 0.025 -0.05
0.3125 0.025 -0.05
0.325 0.025 -0.05
0.3375 0.025 -0.05
0.35 0.025 -0.05
0.3625 0.025 -0.05
0.375 0.025 -0.05
0.3875 0.025 -0.05
0.4 0.025 -0.05
0.4125 0.025 -0.05
0.425 0.025 -0.05
0.4375 0.025 -0.05
0.45 0.025 -0.05
0.4625 0.025 -0.05
0.475 0.025 -0.05
0.4875 0.025 -0.05
0.5 0.025 -0.05
0.5125 0.025 -0.05
0.525 0.025 -0.05
0.5375 0.025 -0.05
0.55 0.025 -0.05
0.5625 0.025 -0.05
0.575 0.025 -0.05
0.5875 0.025 -0.05
0.6 0.025 -0.05
0.0 0.0375 -0.05
0.0125 0.0375 -0.05
0.025 0.0375 -0.05
0.0375 0.0375 -0.05
0.05 0.0375 -0.05
0.0625 0.0375 -0.05
0.075 0.0375 -0.05
0.0875 0.0375 -0.05
0.1 0.0375 -0.05
0.1125 0.0375 -0.05
0.125 0.0375 -0.05
0.1375 0.0375 -0.05
0.15 0.0375 -0.05
0.1625 0.0375 -0.05
0.175 0.0375 -0.05
0.1875 0.0375 -0.05
0.2 0.0375 -0.05
0.2125 0.0375 -0.05
0.225 0.0375 -0.05
0.2375 0.0375 -0.05
0.25 0.0375 -0.05
0.2625 0.0375 -0.05
0.275 0.0375 -0.05
0.2875 0.0375 -0.05
0.3 0.0375 -0.05
0.3125 0.0375 -0.05
0.325 0.0375 -0.05
0.3375 0.0375 -0.05
0.35 0.0375 -0.05
0.3625 0.0375 -0.05
0.375 0.0375 -0.05
0.3875 0.0375 -0.05
0.4 0.0375 -0.05
0.4125 0.0375 -0.05
0.425 0.0375 -0.05
0.4375 0.0375 -0.05
0.45 0.0375 -0.05
0.4625 0.0375 -0.05
0.475 0.0375 -0.05
0.4875 0.0375 -0.05
0.5 0.0375 -0.05
0.5125 0.0375 -0.05
0.525 0.0375 -0.05
0.5375 0.0375 -0.05
0.55 0.0375 -0.05
0.5625 0.0375 -0.05
0.575 0.0375 -0.05
0.5875 0.0375 -0.05
0.6 0.0375 -0.05
0.0 0.05 -0.05
0.0125 0.05 -0.05
0.025 0.05 -0.05
0.0375 0.05 -0.05
0.05 0.05 -0.05
0.0625 0.05 -0.05
0.075 0.05 -0.05
0.0875 0.05 -0.05
0.1 0.05 -0.05
0.1125 0.05 -0.05
0.125 0.05 -0.05
0.1375 0.05 -0.05
0.15 0.05 -0.05
0.1625 0.05 -0.05
0.175 0.05 -0.05
0.1875 0.05 -0.05
0.2 0.05 -0.05
0.2125 0.05 -0.05
0.225 0.05 -0.05
0.2375 0.05 -0.05
0.25 0.05 -0.05
0.2625 0.05 -0.05
0.275 0.05 -0.05
0.2875 0.05 -0.05
0.3 0.05 -0.05
0.3125 0.05 -0.05
0.325 0.05 -0.05
0.3375 0.05 -0.05
0.35 0.05 -0.05
0.3625 0.05 -0.05
0.375 0.05 -0.05
0.3875 0.05 -0.05
0.4 0.05 -0.05
0.4125 0.05 -0.05
0.425 0.05 -0.05
0.4375 0.05 -0.05
0.45 0.05 -0.05
0.4625 0.05 -0.05
0.475 0.05 -0.05
0.4875 0.05 -0.05
0.5 0.05 -0.05
0.5125 0.05 -0.05
0.525 0.05 -0.05
0.5375 0.05 -0.05
0.55 0.05 -0.05
0.5625 0.05 -0.05
0.575 0.05 -0.05
0.5875 0.05 -0.05
0.6 0.05 -0.05
0.0 0.0625 -0.05
0.0125 0.0625 -0.05
0.025 0.0625 -0.05
0.0375 0.0625 -0.05
0.05 0.0625 -0.05
0.0625 0.0625 -0.05
0.075 0.0625 -0.05
0.0875 0.0625 -0.05
0.1 0.0625 -0.05
0.1125 0.0625 -0.05
0.125 0.0625 -0.05
0.1375 0.0625 -0.05
0.15 0.0625 -0.05
0.1625 0.0625 -0.05
0.175 0.0625 -0.05
0.1875 0.0625 -0.05
0.2 0.0625 -0.05
0.2125 0.0625 -0.05
0.225 0.0625 -0.05
0.2375 0.0625 -0.05
0.25 0.0625 -0.05
0.2625 0.0625 -0.05
0.275 0.0625 -0.05
0.2875 0.0625 -0.05
0.3 0.0625 -0.05
0.3125 0.0625 -0.05
0.325 0.0625 -0.05
0.3375 0.0625 -0.05
0.35 0.0625 -0.05
0.3625 0.0625 -0.05
0.375 0.0625 -0.05
0.3875 0.0625 -0.05
0.4 0.0625 -0.05
0.4125 0.0625 -0.05
0.425 0.0625 -0.05
0.4375 0.0625 -0.05
0.45 0.0625 -0.05
0.4625 0.0625 -0.05
0.475 0.0625 -0.05
0.4875 0.0625 -0.05
0.5 0.0625 -0.05
0.5125 0.0625 -0.05
0.525 0.0625 -0.05
0.5375 0.0625 -0.05
0.55 0.0625 -0.05
0.5625 0.0625 -0.05
0.575 0.0625 -0.05
0.5875 0.0625 -0.05
0.6 0.0625 -0.05
0.0 0.075 -0.05
0.0125 0.075 -0.05
0.025 0.075 -0.05
0.0375 0.075 -0.05
0.05 0.075 -0.05
0.0625 0.075 -0.05
0.075 0.075 -0.05
0.0875 0.075 -0.05
0.1 0.075 -0.05
0.1125 0.075 -0.05
0.125 0.075 -0.05
0.1375 0.075 -0.05
0.15 0.075 -0.05
0.1625 0.075 -0.05
0.175 0.075 -0.05
0.1875 0.075 -0.05
0.2 0.075 -0.05
0.2125 0.075 -0.05
0.225 0.075 -0.05
0.2375 0.075 -0.05
0.25 0.075 -0.05
0.2625 0.075 -0.05
0.275 0.075 -0.05
0.2875 0.075 -0.05
0.3 0.075 -0.05
0.3125 0.075 -0.05
0.325 0.075 -0.05
0.3375 0.075 -0.05
0.35 0.075 -0.05
0.3625 0.075 -0.05
0.375 0.075 -0.05
0.3875 0.075 -0.05
0.4 0.075 -0.05
0.4125 0.075 -0.05
0.425 0.075 -0.05
0.4375 0.075 -0.05
0.45 0.075 -0.05
0.4625 0.075 -0.05
0.475 0.075 -0.05
0.4875 0.075 -0.05
0.5 0.075 -0.05
0.5125 0.075 -0.05
0.525 0.075 -0.05
0.5375 0.075 -0.05
0.55 0.075 -0.05
0.5625 0.075 -0.05
0.575 0.075 -0.05
0.5875 0.075 -0.05
0.6 0.075 -0.05
0.0 0.0875 -0.05
0.0125 0.0875 -0.05
0.025 0.0875 -0.05
0.0375 0.0875 -0.05
0.05 0.0875 -0.05
0.0625 0.0875 -0.05
0.075 0.0875 -0.05
0.0875 0.0875 -0.05
0.1 0.0875 -0.05
0.1125 0.0875 -0.05
0.125 0.0875 -0.05
0.1375 0.0875 -0.05
0.15 0.0875 -0.05
0.1625 0.0875 -0.05
0.175 0.0875 -0.05
0.1875 0.0875 -0.05
0.2 0.0875 -0.05
0.2125 0.0875 -0.05
0.225 0.0875 -0.05
0.2375 0.0875 -0.05
0.25 0.0875 -0.05
0.2625 0.0875 -0.05
0.275 0.0875 -0.05
0.2875 0.0875 -0.05
0.3 0.0875 -0.05
0.3125 0.0875 -0.05
0.325 0.0875 -0.05
0.3375 0.0875 -0.05
0.35 0.0875 -0.05
0.3625 0.0875 -0.05
0.375 0.0875 -0.05
0.3875 0.0875 -0.05
0.4 0.0875 -0.05
0.4125 0.0875 -0.05
0.425 0.0875 -0.05
0.4375 0.0875 -0.05
0.45 0.0875 -0.05
0.4625 0.0875 -0.05
0.475 0.0875 -0.05
0.4875 0.0875 -0.05
0.5 0.0875 -0.05
0.5125 0.0875 -0.05
0.525 0.0875 -0.05
0.5375 0.0875 -0.05
0.55 0.0875 -0.05
0.5625 0.0875 -0.05
0.575 0.0875 -0.05
0.5875 0.0875 -0.05
0.6 0.0875 -0.05
0.0 0.1 -0.05
0.0125 0.1 -0.05
0.025 0.1 -0.05
0.0375 0.1 -0.05
0.05 0.1 -0.05
0.0625 0.1 -0.05
0.075 0.1 -0.05
0.0875 0.1 -0.05
0.1 0.1 -0.05
0.1125 0.1 -0.05
0.125 0.1 -0.05
0.1375 0.1 -0.05
0.15 0.1 -0.05
0.1625 0.1 -0.05
0.175 0.1 -0.05
0.1875 0.1 -0.05
0.2 0.1 -0.05
0.2125 0.1 -0.05
0.225 0.1 -0.05
0.2375 0.1 -0.05
0.25 0.1 -0.05
0.2625 0.1 -0.05
0.275 0.1 -0.05
0.2875 0.1 -0.05
0.3 0.1 -0.05
0.3125 0.1 -0.05
0.325 0.1 -0.05
0.3375 0.1 -0.05
0.35 0.1 -0.05
0.3625 0.1 -0.05
0.375 0.1 -0.05
0.3875 0.1 -0.05
0.4 0.1 -0.05
0.4125 0.1 -0.05
0.425 0.1 -0.05
0.4375 0.1 -0.05
0.45 0.1 -0.05
0.4625 0.1 -0.05
0.475 0.1 -0.05
0.4875 0.1 -0.05
0.5 0.1 -0.05
0.5125 0.1 -0.05
0.525 0.1 -0.05
0.5375 0.1 -0.05
0.55 0.1 -0.05
0.5625 0.1 -0.05
0.575 0.1 -0.05
0.5875 0.1 -0.05
0.6 0.1 -0.05
0.0 0.1125 -0.05
0.0125 0.1125 -0.05
0.025 0.1125 -0.05
0.0375 0.1125 -0.05
0.05 0.1125 -0.05
0.0625 0.1125 -0.05
0.075 0.1125 -0.05
0.0875 0.1125 -0.05
0.1 0.1125 -0.05
0.1125 0.1125 -0.05
0.125 0.1125 -0.05
0.1375 0.1125 -0.05
0.15 0.1125 -0.05
0.1625 0.1125 -0.05
0.175 0.1125 -0.05
0.1875 0.1125 -0.05
0.2 0.1125 -0.05
0.2125 0.1125 -0.05
0.225 0.1125 -0.05
0.2375 0.1125 -0.05
0.25 0.1125 -0.05
0.2625 0.1125 -0.05
0.275 0.1125 -0.05
0.2875 0.1125 -0.05
0.3 0.1125 -0.05
0.3125 0.1125 -0.05
0.325 0.1125 -0.05
0.3375 0.1125 -0.05
0.35 0.1125 -0.05
0.3625 0.1125 -0.05
0.375 0.1125 -0.05
0.3875 0.1125 -0.05
0.4 0.1125 -0.05
0.4125 0.1125 -0.05
0.425 0.1125 -0.05
0.4375 0.1125 -0.05
0.45 0.1125 -0.05
0.4625 0.1125 -0.05
0.475 0.1125 -0.05
0.4875 0.1125 -0.05
0.5 0.1125 -0.05
0.5125 0.1125 -0.05
0.525 0.1125 -0.05
0.5375 0.1125 -0.05
0.55 0.1125 -0.05
0.5625 0.1125 -0.05
0.575 0.1125 -0.05
0.5875 0.1125 -0.05
0.6 0.1125 -0.05
0.0 0.125 -0.05
0.0125 0.125 -0.05
0.025 0.125 -0.05
0.0375 0.125 -0.05
0.05 0.125 -0.05
0.0625 0.125 -0.05
0.075 0.125 -0.05
0.0875 0.125 -0.05
0.1 0.125 -0.05
0.1125 0.125 -0.05
0.125 0.125 -0.05
0.1375 0.125 -0.05
0.15 0.125 -0.05
0.1625 0.125 -0.05
0.175 0.125 -0.05
0.1875 0.125 -0.05
0.2 0.125 -0.05
0.2125 0.125 -0.05
0.225 0.125 -0.05
0.2375 0.125 -0.05
0.25 0.125 -0.05
0.2625 0.125 -0.05
0.275 0.125 -0.05
0.2875 0.125 -0.05
0.3 0.125 -0.05
0.3125 0.125 -0.05
0.325 0.125 -0.05
0.3375 0.125 -0.05
0.35 0.125 -0.05
0.3625 0.125 -0.05
0.375 0.125 -0.05
0.3875 0.125 -0.05
0.4 0.125 -0.05
0.4125 0.125 -0.05
0.425 0.125 -0.05
0.4375 0.125 -0.05
0.45 0.125 -0.05
0.4625 0.125 -0.05
0.475 0.125 -0.05
0.4875 0.125 -0.05
0.5 0.125 -0.05
0.5125 0.125 -0.05
0.525 0.125 -0.05
0.5375 0.125 -0.05
0.55 0.125 -0.05
0.5625 0.125 -0.05
0.575 0.125 -0.05
0.5875 0.125 -0.05
0.6 0.125 -0.05
0.0 0.1375 -0.05
0.0125 0.1375 -0.05
0.025 0.1375 -0.05
0.0375 0.1375 -0.05
0.05 0.1375 -0.05
0.0625 0.1375 -0.05
0.075 0.1375 -0.05
0.0875 0.1375 -0.05
[...]
CELL_DATA 16128
SCALARS P float 1
LOOKUP_TABLE default
100000.0
99999.99999999988
100000.0000000003
99999.99999999959
100000.0000000007
99999.99999999818
100000.00000000218
99999.99999999853
99999.99999998706
100000.00000008312
99999.9999996309
100000.0000014001
99999.99999510682
100000.0000161674
99999.99994874024
100000.00015718173
99999.99953161126
100000.00136007619
99999.99614656188
100000.01065423849
99999.97128327687
100000.07526854987
99999.80901602768
100000.46542846542
99998.92614167747
100002.27897238416
99995.85250467008
100005.45513051182
99973.22388555451
101389.39853736397
165742.87755953934
415452.2529416137
785013.2019160956
1.0496881839861576e6
1.1329340125116757e6
1.1482549872483332e6
1.1590355234465601e6
1.1696431802154095e6
1.1795927451396985e6
1.188784643156074e6
1.197114426592756e6
1.2045501401274516e6
1.210942450346982e6
1.2165521596488082e6
1.2204845790671587e6
1.2253093379655376e6
1.2234058492545525e6
1.2372133956594018e6
100000.0
99999.99999999971
100000.00000000016
99999.99999999971
100000.00000000058
99999.99999999817
100000.00000000223
99999.99999999785
99999.99999998907
100000.00000007631
99999.99999965275
100000.00000133367
99999.99999530158
100000.00001561377
99999.99995026013
100000.0001531605
99999.99954179778
100000.00133567958
99999.99620047347
100000.0105502997
99999.97142873351
100000.07529110026
99999.80774103095
100000.47225785477
99998.89866052658
100002.37643812568
99995.53193330087
100006.39520495971
99973.40799578461
101285.45662281112
164401.84163486114
413412.0192503063
786133.8859530075
1.056444398895029e6
1.1432416549871068e6
1.1598785772058135e6
1.1712965932328855e6
1.1822790224677469e6
1.1924633350952202e6
1.2018063227500112e6
1.2102167719758295e6
1.2176561902811045e6
1.2239667494678104e6
1.2294086401036421e6
1.2331015790150522e6
1.2376585708688986e6
1.235412784054495e6
1.2493442977023066e6
100000.0
99999.99999999983
99999.99999999991
99999.9999999995
100000.0000000006
99999.9999999981
100000.00000000263
99999.99999999661
99999.99999999341
100000.00000006128
99999.99999970052
100000.00000118573
99999.99999574358
100000.00001433594
99999.99995383726
100000.00014348363
99999.999566969
100000.00127332176
99999.99634492854
100000.01024964378
99999.97193100168
100000.07495284722
99999.80543400174
100000.48835941187
99998.8257446705
100002.65872464153
99994.53240043552
100009.5856290357
99969.70760634253
101062.12578811221
160796.32583595734
404348.6389687479
775209.5546227361
1.0485224511177398e6
1.1380073704454969e6
1.1549498296340718e6
1.1661217824042875e6
1.1768744575343078e6
1.1868424378857291e6
1.1959816200844625e6
1.204209851991423e6
1.2114996024156408e6
1.2177081321610343e6
1.2230926939657177e6
1.2267920176269792e6
1.2313631382952358e6
1.22914567164742e6
1.243410393531868e6
100000.0
99999.99999999971
99999.99999999985
99999.9999999995
100000.00000000051
99999.99999999808
100000.00000000304
99999.99999999482
99999.99999999953
100000.00000004063
99999.99999976764
100000.00000097569
99999.99999637807
100000.00001247914
99999.99995910621
100000.00012900273
99999.99960536846
100000.00117575304
99999.99657936076
100000.00973101097
99999.97292159402
100000.07365993505
99999.80446643071
100000.50485853845
99998.73925984207
100003.01509882291
99993.22529433497
100013.85869862196
99964.54371999425
100756.77041646409
155288.15886969783
390332.14487643633
759303.5673950665
1.0394025948015328e6
1.1347792097532253e6
1.1530556712587306e6
1.1643737888863047e6
1.1752120430095869e6
1.1852431790491943e6
1.1944354865742256e6
1.2027183423375287e6
1.210067791285951e6
1.2163464730983025e6
1.2217980034028587e6
1.2255802965624407e6
1.2301981036633174e6
1.2279843239998058e6
1.2426938700534494e6
100000.0
99999.99999999983
99999.99999999985
99999.99999999967
100000.00000000042
99999.99999999793
100000.0000000036
99999.99999999309
100000.00000000637
100000.00000001665
99999.99999984741
100000.00000072265
99999.99999715436
100000.00001017038
99999.99996577288
100000.00011032168
99999.99965607915
100000.0010429913
99999.99691182151
100000.00894696274
99999.9746075096
100000.0706186275
99999.80765694912
100000.51228135105
99998.66963107727
100003.35199647862
99991.8842153705
100018.50096656213
99957.9227020192
100433.32682954645
148265.2619283578
371567.71252482204
737377.8700948184
1.0263122533849283e6
1.1296991286531975e6
1.1496613289476794e6
1.1609105602960435e6
1.1716279251311957e6
1.1815389512206635e6
1.1906123299183887e6
1.19878634894302e6
1.2060414081541433e6
1.21224982430403e6
1.2176434606095906e6
1.2214081925600953e6
1.2259902743368754e6
1.2237249395763294e6
1.2389373644161327e6
100000.0
99999.99999999971
99999.99999999985
99999.99999999949
100000.00000000044
99999.999999998
100000.0000000038
99999.99999999134
100000.00000001318
99999.99999999201
99999.99999993134
100000.00000044987
99999.99999800892
100000.00000757733
99999.99997341566
100000.0000884123
99999.99971713436
100000.00087794296
99999.9973427055
100000.00786946104
99999.97714942579
100000.06513642291
99999.81763710556
100000.50135398636
99998.64785042717
100003.5700928715
99990.81538658301
100022.6428354456
99950.47277090176
100153.92499957426
140232.98069933648
348544.19087065366
709363.4033081799
1.0090606886646027e6
1.1231649122685634e6
1.1456613548063189e6
1.1568900939746443e6
1.1674792999294696e6
1.177268091171989e6
1.1862222009803834e6
1.1942889851137295e6
1.2014529692814332e6
1.2075961898160107e6
1.2129374332218005e6
1.2166918040820637e6
1.2212473140941756e6
1.218921400389744e6
1.2347623217314049e6
100000.0
99999.99999999983
99999.99999999977
99999.99999999958
100000.0000000005
99999.99999999798
100000.00000000384
99999.99999999003
100000.00000001898
99999.99999996938
100000.00000001104
100000.0000001831
99999.99999886668
100000.00000491092
99999.99998146771
100000.0000647363
99999.9997849902
100000.00068844417
99999.9978574465
100000.00651449038
99999.98058279799
100000.05686286153
99999.83615284051
100000.46491953587
99998.7005278108
100003.57627824822
99990.33061487193
100025.30372292393
99943.8906320289
99962.10138819565
131773.39708135006
321904.35048576933
675138.6582905519
986909.469636626
1.1146394315109367e6
1.1407600325173347e6
1.1520093916672466e6
1.1623998102370487e6
1.1719962844664592e6
1.180759323300854e6
1.188645201913016e6
1.1956436007652467e6
1.20164840623036e6
1.2068679822344445e6
1.21055068506902e6
1.2150324060382755e6
1.2125920908346213e6
1.22918992556233e6
100000.0
99999.99999999977
99999.99999999994
99999.99999999971
100000.00000000047
99999.99999999805
100000.00000000399
99999.99999998933
100000.00000002295
99999.99999995177
100000.00000007793
99999.99999994844
99999.99999964908
100000.0000024033
99999.99998925894
100000.00004116973
99999.9998545662
100000.00048770984
99999.99842347401
100000.00495614255
99999.98476165219
100000.04599602897
99999.86334576781
100000.40034533344
99998.84204249247
100003.30882207793
99990.6673722766
100025.63612382418
99940.65871500398
99872.02669292035
123504.93979179386
292483.9799111391
634717.2205089345
959082.5985904139
1.1036023437396684e6
1.1348576137441406e6
1.1462686502942948e6
1.1564016143012412e6
1.1657405279376241e6
1.174243894434464e6
1.1818768471372074e6
1.1886356722942214e6
1.1944282828126387e6
1.19945630357385e6
1.2030044203025876e6
1.20736550864928e6
1.2047511198599245e6
1.222275631975081e6
100000.00000000009
99999.99999999977
100000.00000000012
99999.9999999998
100000.00000000047
99999.99999999824
100000.0000000038
99999.99999998929
100000.00000002501
99999.99999994032
100000.00000012587
99999.99999976679
100000.00000028613
100000.00000027548
99999.99999610722
100000.00001976591
99999.99991982321
100000.000293071
99999.99899235641
100000.00332560854
99999.98934419383
100000.0333803519
99999.8972929489
100000.31139834794
99999.06750695579
100002.76225982334
99991.90463955757
100023.19943786273
99943.23067794126
99866.8594693851
116021.62528512461
261327.5222058748
588306.5013732534
924716.4616814116
1.0893373777138605e6
1.1277592446209544e6
1.1396045869937113e6
1.149415444857063e6
1.1584100370511825e6
1.1665589547718896e6
1.1738355046546566e6
1.1802436099820689e6
1.1857068024271037e6
1.1904241683597572e6
1.1937209369301514e6
1.1978617627754475e6
1.1949619192179537e6
1.2136068470951577e6
100000.0
99999.99999999977
100000.00000000006
99999.99999999971
100000.00000000033
99999.99999999853
100000.00000000326
99999.99999999016
100000.00000002471
99999.99999993638
100000.0000001517
99999.99999965157
100000.00000072966
99999.99999869763
100000.00000144196
100000.00000238727
99999.99997483364
100000.00012297917
99999.99950785245
100000.00179081234
99999.99383967044
100000.02041679728
99999.93410192902
100000.20853900819
99999.35002209731
100002.00143707039
99993.90299808848
100018.19830656504
99952.76558269122
99908.38590022962
109814.05391823767
229689.40824400206
536406.506540557
882929.859131392
1.0709164396344635e6
1.1191888361696925e6
1.1319575651264198e6
1.141390051903342e6
1.1499339712615407e6
1.1576084082450932e6
1.1643944340429865e6
1.170304844469096e6
1.1752812489790015e6
1.1795290365131048e6
1.1824172302470107e6
1.1862066185355443e6
1.1828852726183978e6
1.2029090870396427e6
100000.0
99999.99999999993
99999.99999999994
99999.99999999965
100000.00000000029
99999.99999999863
100000.0000000028
99999.99999999137
100000.00000002225
99999.99999993939
100000.0000001558
99999.99999960547
100000.00000096118
99999.99999775295
100000.00000492408
99999.99999030253
100000.00001508754
99999.99999288282
99999.99991855117
100000.00051875076
99999.99771706978
100000.00876089212
99999.96870913001
100000.10695601406
99999.6449644758
100001.15440290906
99996.30572855128
100011.55956732974
99968.14078600022
99955.08332722342
105183.82752833952
199002.0694969906
479913.5380047144
832924.8792751931
1.0471576900916888e6
1.1087296388934988e6
1.1232482804739107e6
1.132275473060467e6
1.140238880466471e6
1.147283297318789e6
1.1533960855261097e6
1.1585955543961416e6
1.1628359724636103e6
1.1663249013658057e6
1.1684858703623123e6
1.171592890230321e6
1.167487149700476e6
1.189102888500537e6
99999.99999999994
99999.99999999988
99999.99999999993
99999.99999999972
99999.9999999999
99999.99999999898
100000.00000000207
99999.99999999302
100000.00000001861
99999.9999999474
100000.00000014131
99999.99999962006
100000.00000099759
99999.99999742149
100000.00000652473
99999.99998387901
100000.00003862235
99999.99991125554
100000.00019138698
99999.99963085899
100000.00054863983
99999.99987291673
99999.99625334934
100000.02248902137
99999.9017025161
100000.38008967495
99998.62306551718
100004.74163572336
99985.90473114248
99980.39720081538
102177.37017445959
170791.7843335863
420214.6289100194
774143.8358754715
1.0166115929799346e6
1.095755458922195e6
1.1133617299152892e6
1.1220309263577582e6
1.1292666421995747e6
1.1354923414101105e6
1.1407072857859093e6
1.1449300115270705e6
1.1481320520769227e6
1.1505420405702547e6
1.1516493473514153e6
1.1537769431241737e6
1.1486088471516243e6
1.1722983938369416e6
100000.0
99999.99999999988
99999.99999999993
99999.99999999974
99999.99999999987
99999.99999999919
100000.00000000167
99999.99999999466
100000.00000001384
99999.9999999586
100000.0000001148
99999.99999967848
100000.00000088422
99999.99999758558
100000.00000652665
99999.99998250177
100000.00004652324
99999.99987729751
100000.00032096797
99999.99916767242
100000.002137549
99999.99457288922
100000.01358236467
99999.96665690019
100000.07961646309
99999.81790654072
100000.38696552112
99999.278063399
100001.42981641286
99981.13714824808
100574.45810365898
146519.8738335286
359245.709144523
706485.3193702087
977596.0013022601
1.0793407202025156e6
1.1021118147093728e6
1.11061995594755e6
1.1169698127844862e6
1.1221413078098157e6
1.1261493577789878e6
1.1289927775684136e6
1.1306257548419775e6
1.1312331348479597e6
1.1302966954922925e6
1.1301302503724182e6
1.122231930949908e6
1.14742475811059e6
100000.0
99999.99999999981
99999.99999999994
99999.9999999997
99999.99999999991
99999.99999999939
100000.00000000095
99999.9999999964
100000.00000000946
99999.99999997077
100000.00000008331
99999.99999975906
100000.00000068377
99999.99999806518
100000.00000543872
99999.99998476886
100000.0000425297
99999.9998814246
100000.00033045096
99999.99907844857
100000.00257435568
99999.9927897096
100000.02026346844
99999.9428222571
100000.16206419904
99999.53847696954
100001.32046956445
99996.20700011293
100010.87896906814
99971.35620762578
99958.93782612753
127336.7488871026
299477.00631818455
630568.7122691284
928318.4612848246
1.0581606849114748e6
1.0891888633961356e6
1.0980156543918557e6
1.1033482330143e6
1.1072095686852525e6
1.1096825235477467e6
1.1107429620872256e6
1.11033165762398e6
1.1086278688888971e6
1.1052020628682128e6
1.102514472213099e6
1.0919736715564441e6
1.1204182485762998e6
100000.00000000009
100000.00000000009
99999.99999999993
99999.99999999988
100000.0
99999.99999999958
100000.00000000019
99999.99999999767
100000.00000000557
99999.9999999817
100000.00000005301
99999.99999984208
100000.00000045965
99999.99999866537
100000.00000385051
99999.99998891843
100000.00003183188
99999.99990857248
100000.00026288301
99999.9992423665
100000.00219096913
99999.99363618926
100000.01858082514
99999.94542649903
100000.16132596045
99999.51982588066
100001.43917155916
99995.66144429175
100012.9761044828
99967.30375594193
99863.61442523908
113782.6226128913
243782.82543646893
548007.0692089527
867122.8923662162
1.0303951295321597e6
1.0740634235626084e6
1.084171411372504e6
1.0884213179685655e6
1.0906783086063587e6
1.0911717984820679e6
1.0897785751461613e6
1.086241435082733e6
1.0803943962402754e6
1.0712550122849639e6
1.0603853959512184e6
1.0376870907596183e6
1.057593834508499e6
100000.0
100000.0
100000.0
100000.0
99999.99999999994
99999.99999999983
99999.99999999993
99999.99999999885
100000.00000000272
99999.99999999025
100000.00000002852
99999.99999991216
100000.00000026078
99999.99999922595
100000.00000227655
99999.99999332687
100000.00001949906
99999.99994307125
100000.00016627305
99999.9995135041
100000.00142759545
99999.99579410156
100000.01245213457
99999.96292201272
100000.11111773513
99999.66464576729
100001.01960461726
99996.87980046954
100009.48317556972
99975.24122294164
99927.20809991925
105555.96323030193
195151.6267004611
461617.4203325889
792896.9831286706
993685.6073829606
1.0558544438151142e6
1.0690038063836894e6
1.072296863216775e6
1.0727218348400078e6
1.070890439174845e6
1.0666057064978715e6
1.0594706739249756e6
1.0491987973485528e6
1.0348770070571343e6
1.0184517457575955e6
990227.9679485931
1.0156827223158361e6
100000.0
100000.0
100000.0
100000.0
100000.00000000004
99999.99999999988
99999.99999999987
99999.99999999949
100000.00000000077
99999.99999999601
100000.00000001144
99999.99999996228
100000.00000011457
99999.99999965036
100000.00000104615
99999.99999689167
100000.00000916503
99999.99997309294
100000.00007876135
99999.99976975347
100000.0006730646
99999.99803021466
100000.00577746115
99999.98300041983
100000.05022588246
99999.85085875816
100000.44542549347
99998.66274095234
100003.97959610481
99989.87309609586
99974.82882235177
101530.93391255384
156190.47624540885
375464.24204927083
705647.17478102
945222.9956468128
1.0331344169920002e6
1.0522869745192507e6
1.0550961025188125e6
1.0535238233925772e6
1.0489569534923772e6
1.0410157099520961e6
1.0287247880380516e6
1.0105424994409782e6
982740.388509477
940355.9246613266
858819.0251274275
725902.0866693752
100000.0
100000.0
100000.0
99999.99999999997
99999.99999999994
100000.00000000004
99999.99999999978
99999.9999999999
99999.99999999978
99999.99999999939
100000.0000000016
99999.99999999198
100000.00000002651
99999.99999991205
100000.00000027362
99999.99999916943
100000.00000244977
99999.99999291536
100000.00002009571
99999.99994404189
100000.00015274646
99999.99959263708
100000.00105442424
99999.99738360955
100000.00607155633
99999.98757022108
100000.01835964729
100000.00791957196
99999.74825252897
100001.94616292948
99982.50453045714
100126.07086007584
128419.85321556164
294606.98151939566
607172.7878962015
882097.7024919095
1.0037298698231181e6
1.0335381794988528e6
1.0369918432902653e6
1.0335281519968634e6
1.0261273909725066e6
1.0144250705819193e6
997055.354305077
971802.1518505553
934055.8682772554
877797.4674883928
782803.5879897769
641071.0179473107
100000.0
100000.0
100000.0
100000.0
99999.99999999988
99999.99999999977
99999.99999999971
99999.99999999981
99999.99999999924
100000.00000000071
99999.99999999724
100000.00000000552
99999.99999998545
100000.00000003529
99999.99999990556
100000.00000026244
99999.99999921939
100000.00000244121
99999.99999203488
100000.00002671333
99999.99990889622
100000.00031343753
99999.99891744049
100000.00374324598
99999.98705839936
100000.04472079582
99999.84551111991
100000.53387432339
99998.15196723292
100006.3830375974
99980.9728380032
99889.87847868151
111565.50228433708
224438.32794785264
501626.85522585217
802019.3503438834
964563.0186203574
1.0117732288633595e6
1.0180611726397102e6
1.0132275916895017e6
1.0032267446046004e6
988149.8939031685
966570.7954521566
936183.0915584373
892706.5485341138
831173.5503729573
738091.6263355723
612206.6410892055
100000.00000000009
100000.0
100000.0
100000.0
99999.99999999994
99999.99999999977
99999.99999999983
99999.9999999998
99999.99999999929
100000.00000000103
99999.99999999642
100000.00000000882
99999.99999997481
100000.00000006825
99999.99999980563
100000.00000055629
99999.99999837266
100000.00000483057
99999.99998543915
100000.00004445526
99999.99986274644
100000.00042777776
99999.99865604696
100000.00425108043
99999.98647403452
100000.04326231261
99999.86095684802
100000.44893143495
99998.54537927161
100004.66303169851
99987.65176291067
99940.72183800543
103390.33166180542
169575.2065329188
395636.9049274596
704457.2323588285
911716.3988378086
985173.7278061341
998077.6288714287
992997.9970810529
980925.0808637319
963116.8977625835
938426.3276107245
904813.6273034432
858809.4792746947
796882.6554705688
710858.3103814617
602585.8948965989
100000.0
100000.0
100000.0
100000.0
99999.99999999988
100000.0
99999.99999999974
99999.9999999999
99999.99999999939
100000.00000000089
99999.99999999689
100000.00000000719
99999.99999997862
100000.00000005792
99999.99999983587
100000.00000046394
99999.99999867076
100000.00000383137
99999.99998887088
100000.00003251237
99999.99990456356
100000.0002810639
99999.99917077077
100000.00244670625
99999.99279415768
100000.02113353866
99999.9384588757
100000.17720412281
99999.49941810679
100001.34016365092
99997.61465116579
99977.54400362888
100528.04002326103
132388.59193227478
297626.86909986933
592036.0967566303
841010.3387252187
950739.0973901916
976237.2718069619
972958.4965619127
959656.9347966645
939870.6701512538
913118.5112184994
877822.1874805696
831405.8134861932
771571.5776653728
693717.3739832212
600478.4473544533
100000.0
100000.0
100000.0
100000.0
99999.99999999988
100000.0
99999.99999999975
99999.99999999991
99999.99999999962
100000.0000000004
99999.99999999776
100000.00000000432
99999.99999998652
100000.00000003565
99999.99999990042
100000.00000027406
99999.99999924072
100000.00000209807
99999.999994208
100000.0000159101
99999.999956648
100000.0001165459
99999.99969327984
100000.00077996447
99999.99812944265
100000.00400707124
99999.99356207404
99999.99958671209
100000.07220474484
99999.51607453196
100002.62665826005
99986.44472364524
99949.17044867782
111701.85514371468
216137.75797509414
471604.6287007167
749383.1308547606
904096.6070636538
950795.4263053325
952806.619674838
939584.9430378369
918649.0974583115
890740.5990596594
854889.9219452353
809335.9599329794
752695.0065261261
682593.7122884184
601503.3793420347
100000.0
100000.0
100000.0
100000.0
100000.0
100000.0
99999.99999999981
100000.0
99999.99999999955
99999.99999999997
99999.99999999873
100000.00000000201
99999.9999999931
100000.00000001721
99999.9999999531
100000.00000012203
99999.99999968006
100000.00000082051
99999.99999793875
100000.00000498755
99999.99998864191
100000.00002301294
99999.99996536331
99999.9999954988
100000.0003588252
99999.9978138111