# vtk DataFile Version 2.0
JuliaCFD
ASCII
DATASET UNSTRUCTURED_GRID

POINTS 32898 float
0.0 0.0 -0.05
0.0125 0.0 -0.05
0.025 0.0 -0.05
0.0375 0.0 -0.05
0.05 0.0 -0.05
0.0625 0.0 -0.05
0.075 0.0 -0.05
0.0875 0.0 -0.05
0.1 0.0 -0.05
0.1125 0.0 -0.05
0.125 0.0 -0.05
0.1375 0.0 -0.05
0.15 0.0 -0.05
0.1625 0.0 -0.05
0.175 0.0 -0.05
0.1875 0.0 -0.05
0.2 0.0 -0.05
0.2125 0.0 -0.05
0.225 0.0 -0.05
0.2375 0.0 -0.05
0.25 0.0 -0.05
0.2625 0.0 -0.05
0.275 0.0 -0.05
0.2875 0.0 -0.05
0.3 0.0 -0.05
0.3125 0.0 -0.05
0.325 0.0 -0.05
0.3375 0.0 -0.05
0.35 0.0 -0.05
0.3625 0.0 -0.05
0.375 0.0 -0.05
0.3875 0.0 -0.05
0.4 0.0 -0.05
0.4125 0.0 -0.05
0.425 0.0 -0.05
0.4375 0.0 -0.05
0.45 0.0 -0.05
0.4625 0.0 -0.05
0.475 0.0 -0.05
0.4875 0.0 -0.05
0.5 0.0 -0.05
0.5125 0.0 -0.05
0.525 0.0 -0.05
0.5375 0.0 -0.05
0.55 0.0 -0.05
0.5625 0.0 -0.05
0.575 0.0 -0.05
0.5875 0.0 -0.05
0.6 0.0 -0.05
0.0 0.0125 -0.05
0.0125 0.0125 -0.05
0.025 0.0125 -0.05
0.0375 0.0125 -0.05
0.05 0.0125 -0.05
0.0625 0.0125 -0.05
0.075 0.0125 -0.05
0.0875 0.0125 -0.05
0.1 0.0125 -0.05
0.1125 0.0125 -0.05
0.125 0.0125 -0.05
0.1375 0.0125 -0.05
0.15 0.0125 -0.05
0.1625 0.0125 -0.05
0.175 0.0125 -0.05
0.1875 0.0125 -0.05
0.2 0.0125 -0.05
0.2125 0.0125 -0.05
0.225 0.0125 -0.05
0.2375 0.0125 -0.05
0.25 0.0125 -0.05
0.2625 0.0125 -0.05
0.275 0.0125 -0.05
0.2875 0.0125 -0.05
0.3 0.0125 -0.05
0.3125 0.0125 -0.05
0.325 0.0125 -0.05
0.3375 0.0125 -0.05
0.35 0.0125 -0.05
0.3625 0.0125 -0.05
0.375 0.0125 -0.05
0.3875 0.0125 -0.05
0.4 0.0125 -0.05
0.4125 0.0125 -0.05
0.425 0.0125 -0.05
0.4375 0.0125 -0.05
0.45 0.0125 -0.05
0.4625 0.0125 -0.05
0.475 0.0125 -0.05
0.4875 0.0125 -0.05
0.5 0.0125 -0.05
0.5125 0.0125 -0.05
0.525 0.0125 -0.05
0.5375 0.0125 -0.05
0.55 0.0125 -0.05
0.5625 0.0125 -0.05
0.575 0.0125 -0.05
0.5875 0.0125 -0.05
0.6 0.0125 -0.05
0.0 0.025 -0.05
0.0125 0.025 -0.05
0.025 0.025 -0.05
0.0375 0.025 -0.05
0.05 0.025 -0.05
0.0625 0.025 -0.05
0.075 0.025 -0.05
0.0875 0.025 -0.05
0.1 0.025 -0.05
0.1125 0.025 -0.05
0.125 0.025 -0.05
0.1375 0.025 -0.05
0.15 0.025 -0.05
0.1625 0.025 -0.05
0.175 0.025 -0.05
0.1875 0.025 -0.05
0.2 0.025 -0.05
0.2125 0.025 -0.05
0.225 0.025 -0.05
0.2375 0.025 -0.05
0.25 0.025 -0.05
0.2625 0.025 -0.05
0.275 0.025 -0.05
0.2875 0.025 -0.05
0.3 0.025 -0.05
0.3125 0.025 -0.05
0.325 0.025 -0.05
0.3375 0.025 -0.05
0.35 0.025 -0.05
0.3625 0.025 -0.05
0.375 0.025 -0.05
0.3875 0.025 -0.05
0.4 0.025 -0.05
0.4125 0.025 -0.05
0.425 0.025 -0.05
0.4375 0.025 -0.05
0.45 0.025 -0.05
0.4625 0.025 -0.05
0.475 0.025 -0.05
0.4875 0.025 -0.05
0.5 0.025 -0.05
0.5125 0.025 -0.05
0.525 0.025 -0.05
0.5375 0.025 -0.05
0.55 0.025 -0.05
0.5625 0.025 -0.05
0.575 0.025 -0.05
0.5875 0.025 -0.05
0.6 0.025 -0.05
0.0 0.0375 -0.05
0.0125 0.0375 -0.05
0.025 0.0375 -0.05
0.0375 0.0375 -0.05
0.05 0.0375 -0.05
0.0625 0.0375 -0.05
0.075 0.0375 -0.05
0.0875 0.0375 -0.05
0.1 0.0375 -0.05
0.1125 0.0375 -0.05
0.125 0.0375 -0.05
0.1375 0.0375 -0.05
0.15 0.0375 -0.05
0.1625 0.0375 -0.05
0.175 0.0375 -0.05
0.1875 0.0375 -0.05
0.2 0.0375 -0.05
0.2125 0.0375 -0.05
0.225 0.0375 -0.05
0.2375 0.0375 -0.05
0.25 0.0375 -0.05
0.2625 0.0375 -0.05
0.275 0.0375 -0.05
0.2875 0.0375 -0.05
0.3 0.0375 -0.05
0.3125 0.0375 -0.05
0.325 0.0375 -0.05
0.3375 0.0375 -0.05
0.35 0.0375 -0.05
0.3625 0.0375 -0.05
0.375 0.0375 -0.05
0.3875 0.0375 -0.05
0.4 0.0375 -0.05
0.4125 0.0375 -0.05
0.425 0.0375 -0.05
0.4375 0.0375 -0.05
0.45 0.0375 -0.05
0.4625 0.0375 -0.05
0.475 0.0375 -0.05
0.4875 0.0375 -0.05
0.5 0.0375 -0.05
0.5125 0.0375 -0.05
0.525 0.0375 -0.05
0.5375 0.0375 -0.05
0.55 0.0375 -0.05
0.5625 0.0375 -0.05
0.575 0.0375 -0.05
0.5875 0.0375 -0.05
0.6 0.0375 -0.05
0.0 0.05 -0.05
0.0125 0.05 -0.05
0.025 0.05 -0.05
0.0375 0.05 -0.05
0.05 0.05 -0.05
0.0625 0.05 -0.05
0.075 0.05 -0.05
0.0875 0.05 -0.05
0.1 0.05 -0.05
0.1125 0.05 -0.05
0.125 0.05 -0.05
0.1375 0.05 -0.05
0.15 0.05 -0.05
0.1625 0.05 -0.05
0.175 0.05 -0.05
0.1875 0.05 -0.05
0.2 0.05 -0.05
0.2125 0.05 -0.05
0.225 0.05 -0.05
0.2375 0.05 -0.05
0.25 0.05 -0.05
0.2625 0.05 -0.05
0.275 0.05 -0.05
0.2875 0.05 -0.05
0.3 0.05 -0.05
0.3125 0.05 -0.05
0.325 0.05 -0.05
0.3375 0.05 -0.05
0.35 0.05 -0.05
0.3625 0.05 -0.05
0.375 0.05 -0.05
0.3875 0.05 -0.05
0.4 0.05 -0.05
0.4125 0.05 -0.05
0.425 0.05 -0.05
0.4375 0.05 -0.05
0.45 0.05 -0.05
0.4625 0.05 -0.05
0.475 0.05 -0.05
0.4875 0.05 -0.05
0.5 0.05 -0.05
0.5125 0.05 -0.05
0.525 0.05 -0.05
0.5375 0.05 -0.05
0.55 0.05 -0.05
0.5625 0.05 -0.05
0.575 0.05 -0.05
0.5875 0.05 -0.05
0.6 0.05 -0.05
0.0 0.0625 -0.05
0.0125 0.0625 -0.05
0.025 0.0625 -0.05
0.0375 0.0625 -0.05
0.05 0.0625 -0.05
0.0625 0.0625 -0.05
0.075 0.0625 -0.05
0.0875 0.0625 -0.05
0.1 0.0625 -0.05
0.1125 0.0625 -0.05
0.125 0.0625 -0.05
0.1375 0.0625 -0.05
0.15 0.0625 -0.05
0.1625 0.0625 -0.05
0.175 0.0625 -0.05
0.1875 0.0625 -0.05
0.2 0.0625 -0.05
0.2125 0.0625 -0.05
0.225 0.0625 -0.05
0.2375 0.0625 -0.05
0.25 0.0625 -0.05
0.2625 0.0625 -0.05
0.275 0.0625 -0.05
0.2875 0.0625 -0.05
0.3 0.0625 -0.05
0.3125 0.0625 -0.05
0.325 0.0625 -0.05
0.3375 0.0625 -0.05
0.35 0.0625 -0.05
0.3625 0.0625 -0.05
0.375 0.0625 -0.05
0.3875 0.0625 -0.05
0.4 0.0625 -0.05
0.4125 0.0625 -0.05
0.425 0.0625 -0.05
0.4375 0.0625 -0.05
0.45 0.0625 -0.05
0.4625 0.0625 -0.05
0.475 0.0625 -0.05
0.4875 0.0625 -0.05
0.5 0.0625 -0.05
0.5125 0.0625 -0.05
0.525 0.0625 -0.05
0.5375 0.0625 -0.05
0.55 0.0625 -0.05
0.5625 0.0625 -0.05
0.575 0.0625 -0.05
0.5875 0.0625 -0.05
0.6 0.0625 -0.05
0.0 0.075 -0.05
0.0125 0.075 -0.05
0.025 0.075 -0.05
0.0375 0.075 -0.05
0.05 0.075 -0.05
0.0625 0.075 -0.05
0.075 0.075 -0.05
0.0875 0.075 -0.05
0.1 0.075 -0.05
0.1125 0.075 -0.05
0.125 0.075 -0.05
0.1375 0.075 -0.05
0.15 0.075 -0.05
0.1625 0.075 -0.05
0.175 0.075 -0.05
0.1875 0.075 -0.05
0.2 0.075 -0.05
0.2125 0.075 -0.05
0.225 0.075 -0.05
0.2375 0.075 -0.05
0.25 0.075 -0.05
0.2625 0.075 -0.05
0.275 0.075 -0.05
0.2875 0.075 -0.05
0.3 0.075 -0.05
0.3125 0.075 -0.05
0.325 0.075 -0.05
0.3375 0.075 -0.05
0.35 0.075 -0.05
0.3625 0.075 -0.05
0.375 0.075 -0.05
0.3875 0.075 -0.05
0.4 0.075 -0.05
0.4125 0.075 -0.05
0.425 0.075 -0.05
0.4375 0.075 -0.05
0.45 0.075 -0.05
0.4625 0.075 -0.05
0.475 0.075 -0.05
0.4875 0.075 -0.05
0.5 0.075 -0.05
0.5125 0.075 -0.05
0.525 0.075 -0.05
0.5375 0.075 -0.05
0.55 0.075 -0.05
0.5625 0.075 -0.05
0.575 0.075 -0.05
0.5875 0.075 -0.05
0.6 0.075 -0.05
0.0 0.0875 -0.05
0.0125 0.0875 -0.05
0.025 0.0875 -0.05
0.0375 0.0875 -0.05
0.05 0.0875 -0.05
0.0625 0.0875 -0.05
0.075 0.0875 -0.05
0.0875 0.0875 -0.05
0.1 0.0875 -0.05
0.1125 0.0875 -0.05
0.125 0.0875 -0.05
0.1375 0.0875 -0.05
0.15 0.0875 -0.05
0.1625 0.0875 -0.05
0.175 0.0875 -0.05
0.1875 0.0875 -0.05
0.2 0.0875 -0.05
0.2125 0.0875 -0.05
0.225 0.0875 -0.05
0.2375 0.0875 -0.05
0.25 0.0875 -0.05
0.2625 0.0875 -0.05
0.275 0.0875 -0.05
0.2875 0.0875 -0.05
0.3 0.0875 -0.05
0.3125 0.0875 -0.05
0.325 0.0875 -0.05
0.3375 0.0875 -0.05
0.35 0.0875 -0.05
0.3625 0.0875 -0.05
0.375 0.0875 -0.05
0.3875 0.0875 -0.05
0.4 0.0875 -0.05
0.4125 0.0875 -0.05
0.425 0.0875 -0.05
0.4375 0.0875 -0.05
0.45 0.0875 -0.05
0.4625 0.0875 -0.05
0.475 0.0875 -0.05
0.4875 0.0875 -0.05
0.5 0.0875 -0.05
0.5125 0.0875 -0.05
0.525 0.0875 -0.05
0.5375 0.0875 -0.05
0.55 0.0875 -0.05
0.5625 0.0875 -0.05
0.575 0.0875 -0.05
0.5875 0.0875 -0.05
0.6 0.0875 -0.05
0.0 0.1 -0.05
0.0125 0.1 -0.05
0.025 0.1 -0.05
0.0375 0.1 -0.05
0.05 0.1 -0.05
0.0625 0.1 -0.05
0.075 0.1 -0.05
0.0875 0.1 -0.05
0.1 0.1 -0.05
0.1125 0.1 -0.05
0.125 0.1 -0.05
0.1375 0.1 -0.05
0.15 0.1 -0.05
0.1625 0.1 -0.05
0.175 0.1 -0.05
0.1875 0.1 -0.05
0.2 0.1 -0.05
0.2125 0.1 -0.05
0.225 0.1 -0.05
0.2375 0.1 -0.05
0.25 0.1 -0.05
0.2625 0.1 -0.05
0.275 0.1 -0.05
0.2875 0.1 -0.05
0.3 0.1 -0.05
0.3125 0.1 -0.05
0.325 0.1 -0.05
0.3375 0.1 -0.05
0.35 0.1 -0.05
0.3625 0.1 -0.05
0.375 0.1 -0.05
0.3875 0.1 -0.05
0.4 0.1 -0.05
0.4125 0.1 -0.05
0.425 0.1 -0.05
0.4375 0.1 -0.05
0.45 0.1 -0.05
0.4625 0.1 -0.05
0.475 0.1 -0.05
0.4875 0.1 -0.05
0.5 0.1 -0.05
0.5125 0.1 -0.05
0.525 0.1 -0.05
0.5375 0.1 -0.05
0.55 0.1 -0.05
0.5625 0.1 -0.05
0.575 0.1 -0.05
0.5875 0.1 -0.05
0.6 0.1 -0.05
0.0 0.1125 -0.05
0.0125 0.1125 -0.05
0.025 0.1125 -0.05
0.0375 0.1125 -0.05
0.05 0.1125 -0.05
0.0625 0.1125 -0.05
0.075 0.1125 -0.05
0.0875 0.1125 -0.05
0.1 0.1125 -0.05
0.1125 0.1125 -0.05
0.125 0.1125 -0.05
0.1375 0.1125 -0.05
0.15 0.1125 -0.05
0.1625 0.1125 -0.05
0.175 0.1125 -0.05
0.1875 0.1125 -0.05
0.2 0.1125 -0.05
0.2125 0.1125 -0.05
0.225 0.1125 -0.05
0.2375 0.1125 -0.05
0.25 0.1125 -0.05
0.2625 0.1125 -0.05
0.275 0.1125 -0.05
0.2875 0.1125 -0.05
0.3 0.1125 -0.05
0.3125 0.1125 -0.05
0.325 0.1125 -0.05
0.3375 0.1125 -0.05
0.35 0.1125 -0.05
0.3625 0.1125 -0.05
0.375 0.1125 -0.05
0.3875 0.1125 -0.05
0.4 0.1125 -0.05
0.4125 0.1125 -0.05
0.425 0.1125 -0.05
0.4375 0.1125 -0.05
0.45 0.1125 -0.05
0.4625 0.1125 -0.05
0.475 0.1125 -0.05
0.4875 0.1125 -0.05
0.5 0.1125 -0.05
0.5125 0.1125 -0.05
0.525 0.1125 -0.05
0.5375 0.1125 -0.05
0.55 0.1125 -0.05
0.5625 0.1125 -0.05
0.575 0.1125 -0.05
0.5875 0.1125 -0.05
0.6 0.1125 -0.05
0.0 0.125 -0.05
0.0125 0.125 -0.05
0.025 0.125 -0.05
0.0375 0.125 -0.05
0.05 0.125 -0.05
0.0625 0.125 -0.05
0.075 0.125 -0.05
0.0875 0.125 -0.05
0.1 0.125 -0.05
0.1125 0.125 -0.05
0.125 0.125 -0.05
0.1375 0.125 -0.05
0.15 0.125 -0.05
0.1625 0.125 -0.05
0.175 0.125 -0.05
0.1875 0.125 -0.05
0.2 0.125 -0.05
0.2125 0.125 -0.05
0.225 0.125 -0.05
0.2375 0.125 -0.05
0.25 0.125 -0.05
0.2625 0.125 -0.05
0.275 0.125 -0.05
0.2875 0.125 -0.05
0.3 0.125 -0.05
0.3125 0.125 -0.05
0.325 0.125 -0.05
0.3375 0.125 -0.05
0.35 0.125 -0.05
0.3625 0.125 -0.05
0.375 0.125 -0.05
0.3875 0.125 -0.05
0.4 0.125 -0.05
0.4125 0.125 -0.05
0.425 0.125 -0.05
0.4375 0.125 -0.05
0.45 0.125 -0.05
0.4625 0.125 -0.05
0.475 0.125 -0.05
0.4875 0.125 -0.05
0.5 0.125 -0.05
0.5125 0.125 -0.05
0.525 0.125 -0.05
0.5375 0.125 -0.05
0.55 0.125 -0.05
0.5625 0.125 -0.05
0.575 0.125 -0.05
0.5875 0.125 -0.05
0.6 0.125 -0.05
0.0 0.1375 -0.05
0.0125 0.1375 -0.05
0.025 0.1375 -0.05
0.0375 0.1375 -0.05
0.05 0.1375 -0.05
0.0625 0.1375 -0.05
0.075 0.1375 -0.05
0.0875 0.1375 -0.05
[...]
CELL_DATA 16128
SCALARS P float 1
LOOKUP_TABLE default
100000.0000000017
100000.0000000062
100000.00000002024
100000.00000006596
100000.0000002155
100000.00000070443
100000.00000230124
100000.00000751068
100000.00002449301
100000.0000798069
100000.00025983395
100000.00084532933
100000.00274818529
100000.00892835323
100000.0289878786
100000.09405774748
100000.30501268733
100000.98854563168
100003.20212249235
100010.36670036319
100033.541435766
100108.43600038195
100350.05229909516
101126.17763143804
103590.99914214846
111192.01477551209
132998.5787869589
186770.79300675957
292206.0002535911
452067.21743687656
640540.4034720333
815152.8067955469
944584.3832600152
1.024779378953034e6
1.0699217344546912e6
1.0958740938764922e6
1.1128271898133208e6
1.1257808245696828e6
1.1368116892583182e6
1.146673537685668e6
1.1555958399993083e6
1.1636198517526456e6
1.170724280579609e6
1.1768680799051803e6
1.182004387396718e6
1.186088673953172e6
1.1893152302742521e6
1.2118485937051147e6
100000.00000000167
100000.00000000614
100000.00000002007
100000.00000006535
100000.00000021384
100000.00000069886
100000.00000228237
100000.00000744841
100000.00002428658
100000.0000791237
100000.00025757286
100000.00083784954
100000.00272345399
100000.00884662505
100000.02871794382
100000.0931667502
100000.30207383733
100000.97886099978
100003.17024668028
100010.26196711669
100033.1982391774
100107.31644208661
100346.43022613545
101114.65235095547
103555.60718938171
111091.58153663664
132760.74502228046
186397.2501294957
292096.13053815294
453281.24553341
644492.6918660308
822769.5438431075
955754.2741864056
1.0386672931841731e6
1.0856201160792676e6
1.1127387816433487e6
1.1304853247508171e6
1.1440355374971924e6
1.1555585774025356e6
1.165848780179803e6
1.1751477677554765e6
1.1834943283743856e6
1.1908579454778924e6
1.1971868093575616e6
1.2024266601596584e6
1.2065367525928572e6
1.2098034008397227e6
1.2327724129409196e6
100000.00000000176
100000.000000006
100000.00000001966
100000.00000006422
100000.00000020996
100000.00000068628
100000.00000224085
100000.00000731074
100000.00002383045
100000.00007761255
100000.00025257106
100000.00082130193
100000.00266873602
100000.0086657783
100000.02812053914
100000.09119437223
100000.29556582747
100000.95740252794
100003.09955449804
100010.02934492475
100032.43398254846
100104.8117593356
100338.25771512768
101088.22549361162
103471.8618174229
110838.28583887912
132071.85117079283
184862.65690173398
289472.76034808793
449872.86263990926
641116.9635651163
820254.8183691439
954427.9360121367
1.0383353197772212e6
1.0859001022532776e6
1.11330822822786e6
1.1311369193005064e6
1.1446490983036477e6
1.1560658334742552e6
1.1662099277057706e6
1.175338709351294e6
1.1835006391555355e6
1.1906725952069059e6
1.1968097888953958e6
1.201865284723805e6
1.2058098972102744e6
1.20908524498994e6
1.232314176750177e6
100000.00000000173
100000.0000000059
100000.00000001899
100000.00000006244
100000.00000020443
100000.00000066751
100000.00000217908
100000.00000710593
100000.00002315169
100000.00007536537
100000.0002451348
100000.00079670535
100000.0025874175
100000.00839705294
100000.02723290925
100000.08826377272
100000.28589477495
100000.92550428523
100002.99440511997
100009.68297198134
100031.29403977186
100101.06542167539
100325.9791490766
101048.23673229832
103343.68458048147
110443.47680906107
130966.84610535827
182294.29005262253
284815.1322401266
443299.00120569067
633740.7409575322
813475.4026779219
949035.1488154104
1.0342764310116492e6
1.0827224293954093e6
1.1105856472428846e6
1.128598895283471e6
1.1421528699776358e6
1.1535450181010382e6
1.1636389062792936e6
1.1727131191965267e6
1.1808275085126362e6
1.1879650292123505e6
1.194083086988138e6
1.199132830894253e6
1.2030857499162722e6
1.2065573607041338e6
1.2302417799611713e6
100000.00000000172
100000.00000000563
100000.00000001847
100000.00000006029
100000.00000019695
100000.0000006434
100000.00000209901
100000.00000684075
100000.00002227348
100000.0000724591
100000.00023552043
100000.00076491605
100000.00248235503
100000.00804997099
100000.026086746
100000.08448023371
100000.27340964056
100000.8843196622
100002.85859766556
100009.23531127891
100029.81911050234
100096.2097359522
100310.02297887365
100996.06938717782
103175.51778553582
109921.08874954638
129485.93097657076
178792.78168153862
278349.632600915
434023.39716634096
623184.1846257218
803653.0396269048
941140.7649730962
1.0282835231491138e6
1.0779963978048568e6
1.1065162847667565e6
1.1248018794806725e6
1.138430861785491e6
1.1498102575725664e6
1.1598596259478298e6
1.1688846234173048e6
1.176957836258354e6
1.184067501151588e6
1.1901715106114713e6
1.1952180639883955e6
1.1991852573446354e6
1.2028905649515563e6
1.2271584335649912e6
100000.00000000167
100000.00000000537
100000.00000001765
100000.00000005758
100000.0000001882
100000.00000061428
100000.00000200293
100000.00000652269
100000.0000212208
100000.00006897682
100000.0002240082
100000.00072687319
100000.0023566918
100000.00763504146
100000.02471716439
100000.07996100001
100000.25850159054
100000.83515282326
100002.69647832247
100008.70084725728
100028.05750961596
100090.4061948465
100290.93054476722
100933.53955660523
102973.3897185143
109290.21937175436
127681.73739043124
174468.8444903952
270246.501913058
422248.4181651801
609650.7532773622
790987.7229537804
930963.4122345347
1.0206099063997149e6
1.0720021124824123e6
1.101386569665242e6
1.1200196250999526e6
1.1337310933264855e6
1.145075768344424e6
1.1550476314626527e6
1.1639873636232135e6
1.1719835281492046e6
1.1790311094999027e6
1.185089745337428e6
1.1901072455078077e6
1.1940772116456563e6
1.1980396438502953e6
1.223037925247967e6
100000.00000000153
100000.00000000524
100000.00000001678
100000.0000000546
100000.00000017828
100000.0000005813
100000.00000189338
100000.00000616001
100000.00002002185
100000.00006501356
100000.00021091515
100000.00068363806
100000.00221398429
100000.00716418034
100000.02316408171
100000.07483979836
100000.24161875101
100000.77950637965
100002.51309087001
100008.09653892904
100026.06639854166
100083.84804727441
100269.35680536924
100862.8630934269
102744.67925523459
108574.16889243035
125617.89603621047
169452.2080063439
260684.91345888056
408132.8485614565
593207.4402054622
775445.7023087917
918425.5007546396
1.0111938874879222e6
1.0647135979035413e6
1.0951965248321176e6
1.1142613892243553e6
1.1280587035616327e6
1.1393340570991428e6
1.149177850599644e6
1.157976109362855e6
1.1658384375078033e6
1.1727698168286937e6
1.1787348212612467e6
1.1836853282684796e6
1.1876406116182385e6
1.1918835944314357e6
1.2177896789241226e6
100000.00000000156
100000.0000000048
100000.00000001579
100000.00000005128
100000.00000016732
100000.00000054498
100000.0000017728
100000.00000576214
100000.00001870708
100000.0000606724
100000.00019658693
100000.0006363702
100000.00205811927
100000.00665041663
100000.02147118794
100000.0692632078
100000.2232532568
100000.71903441376
100002.31400280818
100007.44116118248
100023.9092322505
100076.75023435126
100246.0305372248
100786.50164532014
102497.55915224015
107798.72433335354
123365.54833371264
163891.01533467235
249872.13254955213
391855.9973803148
573910.7873548176
756941.3443467317
903368.4091449247
999885.873019659
1.0560246694655004e6
1.0878775318025611e6
1.1074779433942891e6
1.1213678729772451e6
1.132531808148008e6
1.142182557717766e6
1.1507644165196673e6
1.1584149466985438e6
1.1651540621776793e6
1.170956312796409e6
1.1757842025522888e6
1.1796954716030874e6
1.1842430500283677e6
1.2112817838515225e6
100000.00000000134
100000.00000000448
100000.00000001473
100000.00000004782
100000.0000001555
100000.00000050613
100000.0000016447
100000.00000533857
100000.0000173091
100000.00005606134
100000.0001813856
100000.00058628233
100000.00189315814
100000.00610735844
100000.01968409686
100000.06338421075
100000.20391859686
100000.65546223035
100002.10501840332
100006.75426930362
100021.65199577254
100069.33567568629
100221.70467392671
100706.98677725566
102240.4048402547
106990.38564758732
120999.31746765047
157947.45806258684
238047.176920794
373638.31548668013
551845.87471274
735386.6024471516
885602.7753264756
986495.3714620827
1.0457924851254538e6
1.0793325620241752e6
1.0995981479328966e6
1.1135942595950197e6
1.1245976908522195e6
1.1339740226762064e6
1.1422414942993808e6
1.1495743305147823e6
1.1560138969330397e6
1.1615518462846784e6
1.1661709680615093e6
1.169985639113294e6
1.1748605068536983e6
1.203329789142715e6
100000.00000000124
100000.00000000412
100000.00000001355
100000.00000004409
100000.00000014345
100000.00000046578
100000.00000151157
100000.00000489912
100000.0000158604
100000.00005128894
100000.00016567436
100000.00053458886
100000.00172316274
100000.00554859207
100000.01784826456
100000.05735496487
100000.18412439695
100000.59049796402
100001.89186760325
100006.05510107032
100019.35932773622
100061.82162939761
100197.10876590805
100626.75748761721
101981.25982974289
106174.73534325563
118593.19416306005
151791.5336239392
225478.53243353506
353749.62937881774
527144.8274296585
710712.2155489795
864924.8253171652
970801.8028470672
1.0338461764681382e6
1.0694448298156045e6
1.0905379522850248e6
1.1046638449624819e6
1.1154503314213783e6
1.1244507763719505e6
1.1322757352565567e6
1.1391462346867805e6
1.1451327536910824e6
1.1502534440534539e6
1.1545254313399892e6
1.1581471895596215e6
1.1633633564126699e6
1.1936775570019886e6
100000.00000000124
100000.00000000384
100000.00000001257
100000.00000004043
100000.00000013097
100000.0000004247
100000.00000137612
100000.000004453
100000.00001439228
100000.00004646032
100000.00014980348
100000.000482457
100000.0015520251
100000.0049870962
100000.01600697773
100000.0513198615
100000.16435242374
100000.52574949169
100001.67991815688
100005.36158021289
100017.0910811092
100054.4078914399
100172.90886799735
100548.02577689386
101727.39513718919
105375.04972137079
116216.61724672525
145593.63630762056
212458.4203324314
332512.7699107226
500001.00543419254
682884.9038079663
841127.3660070194
952557.9346383696
1.0199873946451007e6
1.0580792377489174e6
1.0802038519505241e6
1.0944980714892177e6
1.1050043152001945e6
1.113503416923463e6
1.1207188856184261e6
1.1269291766527519e6
1.132241209631893e6
1.1367107496617057e6
1.1404084380815572e6
1.1436581916781168e6
1.1491993640455669e6
1.1819650900355438e6
100000.00000000099
100000.00000000354
100000.0000000113
100000.0000000366
100000.00000011858
100000.00000038373
100000.00000124112
100000.00000400923
100000.00001293393
100000.00004167247
100000.00013409635
100000.00043096209
100000.00138331664
100000.00443472937
100000.01419960156
100000.04540954795
100000.1450361762
100000.4626548342
100001.4739387298
100004.68951294427
100014.8996121093
100047.26771114202
100149.67734644879
100472.67706874166
101484.98232974132
104611.22295116946
113931.0236965373
139516.47456744325
199294.0127812917
310303.66566061345
470681.9863386658
651926.3794386913
814012.9476682993
931493.216147204
1.0039888030019028e6
1.0450814575772894e6
1.0684948284717973e6
1.083018837411578e6
1.0931776428587467e6
1.1010235448398083e6
1.1074149257083007e6
1.112697198507342e6
1.1170181923703114e6
1.120475611796599e6
1.123218992082546e6
1.1257581825376076e6
1.1315192065754293e6
1.167662679405594e6
100000.00000000103
100000.00000000311
100000.00000001016
100000.0000000328
100000.00000010629
100000.0000003435
100000.00000110909
100000.00000357558
100000.00001151206
100000.00003701274
100000.00011883969
100000.00038105181
100000.00122016761
100000.00390182303
100000.01246021193
100000.03973633183
100000.12654549084
100000.40243073854
100001.27792800634
100004.05202353424
100012.82793077559
100040.54178555105
100127.8735315597
100402.20792191273
101258.88887066187
103899.05196364365
111787.13702308048
133706.9172362659
186295.62048298185
287547.07868047635
439540.72291236906
617935.1248610986
783411.8329122989
907319.8737246107
985592.5443244055
1.0302758772254917e6
1.0553036162013079e6
1.0701541979093254e6
1.079901869731463e6
1.0869178515121613e6
1.0922169806650395e6
1.0962138461152697e6
1.0990937498828128e6
1.1009973166531092e6
1.1021556267097336e6
1.103335664475365e6
1.1089638933018502e6
1.1499024021824794e6
100000.00000000083
100000.00000000278
100000.00000000905
100000.00000002926
100000.00000009441
100000.00000030476
100000.00000098185
100000.00000315887
100000.00001014837
100000.00003255428
100000.00010427578
100000.0003335205
100000.00106518196
100000.00339690242
100000.01081667861
100000.03439118444
100000.10917681006
100000.34604135354
100001.09501494934
100003.4592410982
100010.90873418812
100034.33533426285
100107.83502348594
100337.70007787863
101052.59416073206
103249.89924975953
109823.21322315594
128288.54944788507
173762.16752205914
264706.75179108337
407022.8997709195
581110.0534924823
749205.9615214225
879743.737684563
964509.9433885842
1.0134627911460936e6
1.0405172268723418e6
1.0558447019683502e6
1.0651352115415758e6
1.071127920547143e6
1.075013324406013e6
1.077270062871312e6
1.078098589921762e6
1.0776401734462033e6
1.0761792425071134e6
1.0747801223532641e6
1.0792991286606293e6
1.1270103414298685e6
100000.00000000087
100000.00000000256
100000.00000000809
100000.00000002579
100000.00000008314
100000.00000026784
100000.00000086137
100000.0000027649
100000.00000886159
100000.00002835655
100000.0000905973
100000.00028899487
100000.00092039113
100000.00292653944
100000.00929021196
100000.02944236607
100000.09314911487
100000.29418664191
100000.92742765043
100002.91822393124
100009.16425876692
100028.71798433016
100089.77858655839
100279.82703436511
100868.21490911412
102670.71566467598
108064.36548352757
123355.82180369507
161964.8744009724
242268.96333407282
373667.8524352902
541773.8899577212
711359.2042194474
848481.6459368571
940423.7410735493
994414.9576900515
1.0240160877503522e6
1.0400495301499121e6
1.0488781843626387e6
1.0536600106331613e6
1.055777855499703e6
1.0557563932523923e6
1.053742218557752e6
1.049776687761581e6
1.0440696605935344e6
1.0378883441096274e6
1.0388664307540923e6
1.0949446230869305e6
100000.00000000077
100000.00000000204
100000.00000000701
100000.0000000225
100000.00000007263
100000.00000023331
100000.00000074871
100000.00000239763
100000.00000766494
100000.00002446359
100000.00007794617
100000.00024792922
100000.00078724393
100000.00249533422
100000.00789534676
100000.02493555119
100000.07860501086
100000.24730844068
100000.77652245383
100002.43308889425
100007.60682723287
100023.72599877226
100073.80892681285
100228.88714895668
100706.62041851637
102164.37268515008
106522.95817246781
118970.606637819
151130.80486389506
220719.2038470213
340100.1625432752
500392.84689410654
669953.0617403993
813287.1714824402
912994.4898792721
972873.6184028185
1.0056705111849281e6
1.0227504330056794e6
1.0311896660414921e6
1.0346209908509502e6
1.034639059755779e6
1.0317677701923922e6
1.0259821928488693e6
1.0170027085234044e6
1.0046079186596046e6
989771.9391991481
981278.3661223851
1.0392348737938636e6
100000.00000000054
100000.00000000179
100000.00000000602
100000.00000001954
100000.00000006284
100000.00000020149
100000.00000064484
100000.00000205991
100000.00000656815
100000.00002090506
100000.00006641488
100000.00021061105
100000.00066662893
100000.00210600377
100000.0066402983
100000.02089521891
100000.06561608518
100000.20561090118
100000.64286123584
100002.00530130425
100006.23992787504
100019.36626261548
100059.93326084148
100184.85593845892
100567.61308762943
101730.22894413365
105199.92632477499
115161.68794737375
141428.574967164
200512.91093057342
307009.33018749574
457587.9820474253
625225.329596213
773985.9964568487
881873.2258569963
948544.2187808678
985332.016658841
1.0039470711979949e6
1.0121979445367097e6
1.0142539279707778e6
1.0119510195798593e6
1.0057573015455062e6
995275.0488275569
979326.4681604228
955595.161108118
919563.4824942589
861907.8060074144
756434.8984935326
100000.00000000047
100000.00000000166
100000.00000000537
100000.00000001673
100000.00000005399
100000.00000017241
100000.00000055051
100000.00000175372
100000.00000557644
100000.00001769656
100000.00005605021
100000.00017717502
100000.00055892253
100000.00175956095
100000.00552761075
100000.01732701235
100000.0541914588
100000.16909139453
100000.52632279524
100001.63407516814
100005.0596478681
100015.62139606083
100048.07945774184
100147.4498197374
100450.14743244673
101364.84282079214
104086.77056391751
111927.24041642912
132958.77817974484
182042.8642584907
275115.98508611304
414132.8195090287
577607.1240654398
730521.2471385045
846723.2531232393
921093.3743344459
962818.822089952
983641.9145654198
992089.8308605694
992948.2448601712
988381.148369477
978882.5705232075
963815.6442074082
941474.4239252772
908684.3815957734
859863.8746496126
785483.2934271874
669060.2241014576
100000.00000000036
100000.0000000014
100000.00000000447
100000.00000001438
100000.00000004584
100000.00000014632
100000.00000046566
100000.00000147978
100000.00000469113
100000.0000148417
100000.00004685746
100000.00014762065
100000.00046405701
100000.00145555258
100000.00455500586
100000.01422073548
100000.04428836996
100000.13757781958
100000.42623407158
100001.31683374938
100004.0562861558
100012.45538780985
100038.11564655804
100116.19396995791
100352.56211769444
101062.74230454564
103167.92221207875
109239.81861342385
125751.25831659981
165607.66836951495
245125.12757040825
370931.9009716146
527751.3085259908
683007.1459516156
807254.2512088103
890149.8006945174
937894.0726234185
961803.9788010351
971050.5498187954
971127.112044735
964657.0388846955
952332.0770529801
933547.2364093467
906594.0724660585
868524.7988002403
814854.6315948336
739553.1416855823
636195.3164718068
100000.00000000036
100000.00000000108
100000.00000000384
100000.00000001214
100000.00000003868
100000.00000012317
100000.00000039065
100000.00000123732
100000.00000391091
100000.00001233362
100000.00003880865
100000.00012183601
100000.00038159944
100000.00119233577
100000.00371633763
100000.01155367555
100000.03582369561
100000.11076849366
100000.34150803424
100001.04968525827
100003.21599096873
100009.81921888012
100029.86947908338
100090.48808858497
100272.80327347967
100817.17376583263
102423.17576161039
107052.94872537143
119770.15808149862
151387.13037109992
217669.89250558792
328976.426080581
476543.39911467844
631786.3791698231
763272.0839374312
855315.5880507407
910243.2703679274
938322.096570733
949194.8959695759
949129.0013640459
941355.2586537153
926949.5322681079
905582.2958490159
875888.8056493487
835608.8731082731
781741.5387662934
711164.1448524082
622365.1106701378
100000.00000000029
100000.00000000093
100000.00000000322
100000.00000001004
100000.00000003247
100000.00000010263
100000.00000032486
100000.00000102582
100000.00000323156
100000.00001015702
100000.00003184841
100000.00009962115
100000.00031083456
100000.00096736215
100000.00300257505
100000.00929396438
100000.0286854465
100000.0882713734
100000.27077722512
100000.82787653014
100002.52229739328
100007.656060302
100023.14565584598
100069.66537248128
100208.62283119929
100620.76941801368
101829.93605105863
105308.23085395161
114925.94002524673
139430.41200682774
193252.9359239601
289276.3917441336
425085.29738015257
577482.4582682423
714745.9270416993
816196.7631147943
879464.2591153331
912967.6626956917
926510.5855676788
927137.0361634215
918819.4303167041
903181.6304553762
880341.5133398758
849441.1895043212
808986.1551384962
757216.6062986981
692819.9439390127
616274.2639118308
100000.00000000035
100000.00000000081
100000.00000000274
100000.00000000848
100000.00000002685
100000.00000008488
100000.00000026778
100000.00000084283
100000.00000264673
100000.0000082902
100000.00002590114
100000.00008071303
100000.00025084631
100000.0007774569
100000.00240274114
100000.0074037544
100000.02274347299
100000.06964007558
100000.2125146183
100000.64619740495
100001.95747619223
100005.90575764769
100017.74079092787
100053.04170497537
100157.74172292533
100466.09510561092
101365.10572481561
103941.95717005228
111091.93060796068
129660.86795632106
172195.84088606804
252773.63771388045
374643.73719025566
521033.66753391223