# vtk DataFile Version 2.0
JuliaCFD
ASCII
DATASET POLYDATA

POINTS 7496 float
1.5 1.0 0.005
1.5 0.98319 0.005
1.5 0.966381 0.005
1.5 0.949571 0.005
1.5 0.932761 0.005
1.5 0.915952 0.005
1.5 0.899142 0.005
1.5 0.882332 0.005
1.5 0.865523 0.005
1.5 0.848713 0.005
1.5 0.831903 0.005
1.5 0.815094 0.005
1.5 0.798284 0.005
1.5 0.781474 0.005
1.5 0.764665 0.005
1.5 0.747855 0.005
1.5 0.731045 0.005
1.5 0.714236 0.005
1.5 0.697426 0.005
1.5 0.680616 0.005
1.5 0.663807 0.005
1.5 0.646997 0.005
1.5 0.630187 0.005
1.5 0.613378 0.005
1.5 0.596568 0.005
1.5 0.579758 0.005
1.5 0.562948 0.005
1.5 0.546139 0.005
1.5 0.529329 0.005
1.5 0.512519 0.005
1.5 0.49571 0.005
1.5 0.4789 0.005
1.5 0.46209 0.005
1.5 0.445281 0.005
1.5 0.428471 0.005
1.5 0.411661 0.005
1.5 0.394852 0.005
1.5 0.378042 0.005
1.5 0.361232 0.005
1.5 0.344423 0.005
1.5 0.327613 0.005
1.5 0.310803 0.005
1.5 0.293994 0.005
1.5 0.277184 0.005
1.5 0.260374 0.005
1.5 0.243565 0.005
1.5 0.226755 0.005
1.5 0.209945 0.005
1.5 0.193136 0.005
1.5 0.176326 0.005
1.48061 0.172906 0.005
1.46122 0.169487 0.005
1.44182 0.166068 0.005
1.42243 0.162649 0.005
1.40304 0.159229 0.005
1.38365 0.15581 0.005
1.36426 0.152391 0.005
1.34486 0.148972 0.005
1.32547 0.145552 0.005
1.30608 0.142133 0.005
1.28669 0.138714 0.005
1.2673 0.135294 0.005
1.2479 0.131875 0.005
1.22851 0.128456 0.005
1.20912 0.125036 0.005
1.18973 0.121617 0.005
1.17034 0.118198 0.005
1.15095 0.114779 0.005
1.13155 0.111359 0.005
1.11216 0.10794 0.005
1.09277 0.104521 0.005
1.07338 0.101101 0.005
1.05399 0.097682 0.005
1.03459 0.0942626 0.005
1.0152 0.0908433 0.005
0.995809 0.0874241 0.005
0.976418 0.0840049 0.005
0.957026 0.0805855 0.005
0.937634 0.0771661 0.005
0.918242 0.0737468 0.005
0.89885 0.0703276 0.005
0.879458 0.0669084 0.005
0.860066 0.063489 0.005
0.840674 0.0600696 0.005
0.821282 0.0566503 0.005
0.80189 0.0532311 0.005
0.782498 0.0498117 0.005
0.763106 0.0463925 0.005
0.743714 0.0429731 0.005
0.724322 0.0395537 0.005
0.70493 0.0361345 0.005
0.685538 0.0327153 0.005
0.666146 0.029296 0.005
0.646754 0.0258766 0.005
0.627363 0.0224574 0.005
0.607971 0.0190381 0.005
0.588579 0.0156187 0.005
0.569187 0.0121994 0.005
0.549795 0.00878013 0.005
0.530403 0.00536081 0.005
0.511011 0.00194151 0.005
0.49149 0.0 0.005
0.47183 0.0 0.005
0.45217 0.0 0.005
0.432511 0.0 0.005
0.412851 0.0 0.005
0.393192 0.0 0.005
0.373532 0.0 0.005
0.353873 0.0 0.005
0.334213 0.0 0.005
0.314553 0.0 0.005
0.294894 0.0 0.005
0.275234 0.0 0.005
0.255575 0.0 0.005
0.235915 0.0 0.005
0.216255 0.0 0.005
0.196596 0.0 0.005
0.176936 0.0 0.005
0.157277 0.0 0.005
0.137617 0.0 0.005
0.117958 0.0 0.005
0.0982979 0.0 0.005
0.0786383 0.0 0.005
0.0589788 0.0 0.005
0.0393192 0.0 0.005
0.0196596 0.0 0.005
0.0 0.0 0.005
0.0 0.0204082 0.005
0.0 0.0408163 0.005
0.0 0.0612245 0.005
0.0 0.0816327 0.005
0.0 0.102041 0.005
0.0 0.122449 0.005
0.0 0.142857 0.005
0.0 0.163265 0.005
0.0 0.183673 0.005
0.0 0.204082 0.005
0.0 0.22449 0.005
0.0 0.244898 0.005
0.0 0.265306 0.005
0.0 0.285714 0.005
0.0 0.306122 0.005
0.0 0.326531 0.005
0.0 0.346939 0.005
0.0 0.367347 0.005
0.0 0.387755 0.005
0.0 0.408163 0.005
0.0 0.428571 0.005
0.0 0.44898 0.005
0.0 0.469388 0.005
0.0 0.489796 0.005
0.0 0.510204 0.005
0.0 0.530612 0.005
0.0 0.55102 0.005
0.0 0.571429 0.005
0.0 0.591837 0.005
0.0 0.612245 0.005
0.0 0.632653 0.005
0.0 0.653061 0.005
0.0 0.673469 0.005
0.0 0.693878 0.005
0.0 0.714286 0.005
0.0 0.734694 0.005
0.0 0.755102 0.005
0.0 0.77551 0.005
0.0 0.795918 0.005
0.0 0.816327 0.005
0.0 0.836735 0.005
0.0 0.857143 0.005
0.0 0.877551 0.005
0.0 0.897959 0.005
0.0 0.918367 0.005
0.0 0.938776 0.005
0.0 0.959184 0.005
0.0 0.979592 0.005
0.0 1.0 0.005
0.0194805 1.0 0.005
0.038961 1.0 0.005
0.0584416 1.0 0.005
0.0779221 1.0 0.005
0.0974026 1.0 0.005
0.116883 1.0 0.005
0.136364 1.0 0.005
0.155844 1.0 0.005
0.175325 1.0 0.005
0.194805 1.0 0.005
0.214286 1.0 0.005
0.233766 1.0 0.005
0.253247 1.0 0.005
0.272727 1.0 0.005
0.292208 1.0 0.005
0.311688 1.0 0.005
0.331169 1.0 0.005
0.350649 1.0 0.005
0.37013 1.0 0.005
0.38961 1.0 0.005
0.409091 1.0 0.005
0.428571 1.0 0.005
0.448052 1.0 0.005
0.467532 1.0 0.005
0.487013 1.0 0.005
0.506494 1.0 0.005
0.525974 1.0 0.005
0.545455 1.0 0.005
0.564935 1.0 0.005
0.584416 1.0 0.005
0.603896 1.0 0.005
0.623377 1.0 0.005
0.642857 1.0 0.005
0.662338 1.0 0.005
0.681818 1.0 0.005
0.701299 1.0 0.005
0.720779 1.0 0.005
0.74026 1.0 0.005
0.75974 1.0 0.005
0.779221 1.0 0.005
0.798701 1.0 0.005
0.818182 1.0 0.005
0.837662 1.0 0.005
0.857143 1.0 0.005
0.876623 1.0 0.005
0.896104 1.0 0.005
0.915584 1.0 0.005
0.935065 1.0 0.005
0.954545 1.0 0.005
0.974026 1.0 0.005
0.993506 1.0 0.005
1.01299 1.0 0.005
1.03247 1.0 0.005
1.05195 1.0 0.005
1.07143 1.0 0.005
1.09091 1.0 0.005
1.11039 1.0 0.005
1.12987 1.0 0.005
1.14935 1.0 0.005
1.16883 1.0 0.005
1.18831 1.0 0.005
1.20779 1.0 0.005
1.22727 1.0 0.005
1.24675 1.0 0.005
1.26623 1.0 0.005
1.28571 1.0 0.005
1.30519 1.0 0.005
1.32468 1.0 0.005
1.34416 1.0 0.005
1.36364 1.0 0.005
1.38312 1.0 0.005
1.4026 1.0 0.005
1.42208 1.0 0.005
1.44156 1.0 0.005
1.46104 1.0 0.005
1.48052 1.0 0.005
0.439852 0.343947 0.005
0.422365 0.343061 0.005
0.433879 0.357062 0.005
0.416752 0.361094 0.005
0.60433 0.545591 0.005
0.605034 0.564097 0.005
0.622361 0.552572 0.005
1.4843 0.622333 0.005
1.48789 0.607019 0.005
1.47271 0.610033 0.005
1.0112 0.614158 0.005
0.990791 0.607636 0.005
0.992955 0.627507 0.005
0.916439 0.0838798 0.005
0.93479 0.0932958 0.005
0.285912 0.592568 0.005
0.293546 0.572805 0.005
0.273126 0.573098 0.005
1.22495 0.391833 0.005
1.22044 0.409659 0.005
1.24053 0.407513 0.005
0.89599 0.199946 0.005
0.89949 0.180095 0.005
0.878282 0.186978 0.005
0.6519 0.451187 0.005
0.655633 0.429671 0.005
0.634388 0.436069 0.005
0.666147 0.369493 0.005
0.684176 0.38064 0.005
0.687709 0.360597 0.005
1.12987 0.859761 0.005
1.13061 0.879343 0.005
1.14941 0.871955 0.005
0.223551 0.511887 0.005
0.198128 0.50795 0.005
0.205386 0.534287 0.005
1.08138 0.282523 0.005
1.09871 0.297649 0.005
1.10225 0.277552 0.005
0.0941029 0.244564 0.005
0.103152 0.221712 0.005
0.0815311 0.223936 0.005
1.26916 0.817469 0.005
1.24769 0.814491 0.005
1.25117 0.838739 0.005
0.335393 0.331499 0.005
0.329657 0.349547 0.005
0.350812 0.347445 0.005
1.00311 0.272836 0.005
1.02112 0.284079 0.005
1.02446 0.265112 0.005
0.176311 0.51281 0.005
0.181131 0.531028 0.005
0.867628 0.36082 0.005
0.88553 0.372705 0.005
0.889117 0.352334 0.005
0.885383 0.260099 0.005
0.888893 0.240193 0.005
0.867661 0.247213 0.005
0.894048 0.671883 0.005
0.871888 0.677551 0.005
0.879509 0.697341 0.005
0.33419 0.0511353 0.005
0.333174 0.0305397 0.005
0.313382 0.0433751 0.005
0.876948 0.866347 0.005
0.857151 0.85357 0.005
0.857235 0.874576 0.005
1.43153 0.234302 0.005
1.43312 0.216397 0.005
1.41552 0.218191 0.005
0.694531 0.208509 0.005
0.712518 0.219897 0.005
0.716064 0.199787 0.005
0.325696 0.588372 0.005
0.333682 0.569323 0.005
0.313555 0.570762 0.005
1.18833 0.832327 0.005
1.20801 0.842584 0.005
1.2078 0.821603 0.005
0.161196 0.182404 0.005
0.178774 0.18393 0.005
0.175099 0.16656 0.005
0.740115 0.676756 0.005
0.739481 0.697547 0.005
0.759663 0.690643 0.005
1.0208 0.172484 0.005
1.03853 0.185349 0.005
1.04212 0.164956 0.005
0.885375 0.146748 0.005
0.888919 0.126647 0.005
0.867415 0.134946 0.005
0.680987 0.799687 0.005
0.662567 0.79034 0.005
0.661605 0.811279 0.005
1.35833 0.185974 0.005
1.37605 0.202161 0.005
1.38056 0.179838 0.005
1.28394 0.760715 0.005
1.28229 0.743935 0.005
1.26898 0.755889 0.005
0.730408 0.345231 0.005
0.733953 0.32513 0.005
0.712432 0.333785 0.005
0.779164 0.62122 0.005
0.759984 0.607588 0.005
0.759773 0.628428 0.005
1.06376 0.155664 0.005
1.08159 0.167901 0.005
1.08515 0.14773 0.005
0.528919 0.461498 0.005
0.544777 0.467711 0.005
0.550395 0.451 0.005
0.691256 0.34048 0.005
0.708886 0.353895 0.005
0.615825 0.201286 0.005
0.634121 0.210924 0.005
0.637713 0.190551 0.005
1.28848 0.446175 0.005
1.28086 0.462218 0.005
1.30129 0.462225 0.005
0.890209 0.484087 0.005
0.905875 0.495165 0.005
0.908675 0.475455 0.005
0.837608 0.74176 0.005
0.837365 0.761218 0.005
0.856554 0.752304 0.005
0.5466 0.589072 0.005
0.565077 0.60209 0.005
0.56693 0.580422 0.005
0.531792 0.347953 0.005
0.54803 0.35861 0.005
0.552221 0.339266 0.005
1.03251 0.826489 0.005
1.03398 0.848164 0.005
1.0526 0.835405 0.005
1.16952 0.779858 0.005
1.14978 0.76844 0.005
1.1495 0.789828 0.005
1.1075 0.676451 0.005
1.11228 0.654124 0.005
1.09091 0.653989 0.005
0.190591 0.168454 0.005
0.190362 0.148893 0.005
0.37091 0.723566 0.005
0.36889 0.743696 0.005
0.388768 0.735064 0.005
0.448131 0.507523 0.005
0.423739 0.509028 0.005
0.432466 0.526882 0.005
0.623854 0.614973 0.005
0.604159 0.604762 0.005
0.604422 0.62605 0.005
0.874745 0.207037 0.005
0.856808 0.195363 0.005
0.932125 0.221802 0.005
0.950189 0.232756 0.005
0.953681 0.212951 0.005
1.28517 0.515404 0.005
1.27584 0.526361 0.005
1.29226 0.528858 0.005
1.07783 0.302623 0.005
1.06026 0.288878 0.005
0.616741 0.422483 0.005
0.612603 0.443157 0.005
0.0189084 0.982169 0.005
1.207 0.137084 0.005
1.48245 0.19087 0.005
0.0192672 0.22449 0.005
0.0284908 0.204082 0.005
0.191154 0.0219652 0.005
1.16505 0.261598 0.005
1.16857 0.241625 0.005
1.14774 0.24635 0.005
0.496813 0.982429 0.005
0.511285 0.0200558 0.005
0.531812 0.0285555 0.005
0.0153649 0.958807 0.005
0.646793 0.968072 0.005
0.627463 0.956345 0.005
0.629518 0.979103 0.005
1.46651 0.980499 0.005
1.40207 0.172712 0.005
1.42264 0.181511 0.005
1.42597 0.201582 0.005
1.44147 0.205929 0.005
1.44388 0.188213 0.005
1.36199 0.165241 0.005
0.992675 0.1052 0.005
1.48419 0.207356 0.005
1.48521 0.22397 0.005
0.885744 0.983732 0.005
1.16912 0.98756 0.005
0.586496 0.0290244 0.005
0.604551 0.03843 0.005
0.385245 0.984709 0.005
0.953347 0.101445 0.005
1.48233 0.529482 0.005
0.400882 0.982501 0.005
1.48657 0.902457 0.005
0.289217 0.0158099 0.005
0.31046 0.0202008 0.005
0.740569 0.0608106 0.005
0.75861 0.071894 0.005
0.719249 0.0683258 0.005
0.737225 0.0797727 0.005
0.0273998 0.142857 0.005
0.0138259 0.163265 0.005
0.0351474 0.163265 0.005
[...]
CELL_DATA 7242
SCALARS P float 1
LOOKUP_TABLE default
100000.0000000001
100000.00000000019
99999.99999999996
99999.99999999996
100000.00000000009
100000.00000000015
100000.00000000003
99999.99999999996
100000.00000000009
100000.0000000001
99999.99999999996
100000.00000000016
100000.0000000001
100000.00000000009
100000.00000000016
100000.00000000009
100000.00000000009
100000.00000000006
99999.99999999997
100000.00000000019
100000.00000000009
100000.0000000001
100000.0000000001
100000.00000000003
100000.00000000016
100000.00000000003
100000.0
100000.00000000012
100000.0000000001
100000.00000000001
100000.00000000009
100000.00000000007
100000.00000000015
100000.00000000009
100000.00000000012
100000.00000000015
100000.00000000001
100000.00000000016
100000.00000000017
100000.00000000001
100000.00000000012
100000.00000000016
100000.00000000015
100000.00000000013
100000.00000000007
100000.00000000015
100000.00000000015
100000.00000000012
100000.00000000019
100000.00000000015
100000.00000000003
100000.00000000006
100000.00000000016
100000.00000000013
100000.00000000016
100000.00000000009
100000.0
100000.00000000015
100000.00000000003
100000.00000000007
100000.00000000022
100000.0000000001
100000.00000000012
100000.00000000003
100000.00000000012
100000.00000000025
100000.00000000012
100000.00000000007
100000.00000000016
100000.00000000006
100000.00000000004
100000.00000000004
100000.00000000004
100000.00000000004
100000.00000000007
100000.00000000012
100000.00000000022
100000.00000000007
100000.00000000001
100000.0000000001
100000.00000000015
100000.00000000019
100000.0000000001
100000.00000000013
100000.00000000015
100000.00000000001
100000.00000000003
100000.00000000015
100000.00000000015
99999.99999999997
100000.00000000003
100000.0000000001
100000.00000000001
100000.00000000009
100000.00000000012
100000.00000000019
100000.00000000006
100000.00000000006
100000.00000000009
100000.00000000012
100000.00000000009
100000.00000000003
100000.00000000004
100000.00000000004
100000.00000000009
100000.0000000001
100000.00000000003
100000.00000000006
100000.00000000006
100000.00000000015
100000.00000000004
100000.00000000006
100000.00000000003
100000.00000000003
100000.00000000009
100000.0000000001
100000.00000000009
100000.00000000006
100000.00000000003
100000.00000000003
100000.00000000013
99999.99999999996
100000.00000000009
100000.00000000028
100000.00000000017
100000.0000000001
100000.00000000001
100000.00000000009
100000.00000000009
100000.00000000016
100000.00000000004
99999.99999999999
99999.99999999996
99999.99999999996
100000.00000000001
100000.00000000001
100000.0000000001
100000.00000000009
100000.00000000007
100000.0000000002
100000.00000000015
100000.00000000012
100000.00000000003
100000.0000000001
100000.0000000001
100000.0
100000.0000000001
99999.99999999997
100000.00000000006
100000.00000000007
99999.99999999997
100000.00000000001
100000.00000000004
99999.99999999993
100000.00000000017
100000.00000000006
100000.0000000001
100000.0000000001
100000.0
100000.00000000007
99999.99999999997
100000.00000000003
99999.99999999997
99999.99999999999
100000.00000000003
100000.00000000001
99999.99999999997
100000.00000000003
100000.00000000001
100000.00000000015
100000.00000000001
100000.00000000009
99999.99999999997
100000.00000000006
99999.99999999996
100000.0000000001
99999.99999999985
100000.0000000001
100000.00000000001
100000.00000000001
100000.00000000004
100000.00000000009
99999.99999999996
100000.00000000003
100000.0
100000.0
100000.00000000007
100000.00000000003
100000.00000000007
100000.00000000009
99999.99999999997
100000.00000000003
100000.00000000007
100000.0000000001
100000.0
100000.00000000001
99999.99999999994
99999.99999999993
99999.99999999996
99999.99999999996
100000.00000000004
100000.00000000009
100000.00000000016
100000.00000000009
100000.00000000009
100000.0000000001
100000.00000000012
100000.00000000003
100000.00000000003
99999.99999999997
100000.00000000001
100000.00000000001
99999.99999999997
100000.00000000006
100000.0
99999.99999999997
100000.00000000006
99999.99999999993
100000.00000000001
100000.00000000007
100000.00000000009
100000.00000000009
100000.00000000001
100000.00000000006
100000.00000000007
100000.00000000006
100000.0000000001
100000.00000000015
100000.00000000006
100000.00000000009
100000.00000000003
100000.00000000012
100000.00000000003
99999.99999999997
99999.99999999999
99999.99999999994
100000.00000000003
100000.0000000001
100000.0000000001
100000.00000000006
99999.99999999999
100000.00000000015
100000.00000000015
100000.0000000002
100000.00000000016
100000.00000000006
100000.0000000001
100000.00000000003
100000.00000000003
99999.99999999996
100000.00000000007
99999.99999999999
100000.00000000007
99999.99999999993
100000.00000000003
99999.99999999984
100000.00000000007
100000.00000000004
100000.0000000001
100000.00000000004
100000.00000000001
100000.00000000015
100000.0000000001
100000.00000000003
100000.0
100000.00000000006
100000.00000000022
100000.00000000016
99999.99999999994
100000.00000000012
100000.00000000003
99999.99999999991
100000.00000000009
100000.00000000017
100000.0000000001
100000.0
100000.00000000003
99999.99999999997
100000.00000000012
99999.99999999999
100000.0000000001
100000.00000000003
100000.00000000013
100000.00000000009
100000.00000000003
100000.00000000003
100000.00000000006
100000.00000000009
100000.00000000012
100000.00000000004
100000.00000000003
100000.00000000006
99999.99999999996
100000.00000000003
100000.0000000001
100000.0
99999.99999999999
99999.99999999999
99999.99999999993
100000.00000000012
100000.0
100000.00000000001
100000.0
99999.99999999997
100000.0
100000.00000000003
100000.00000000009
100000.00000000003
100000.0000000002
100000.00000000001
100000.00000000003
99999.99999999999
100000.0000000001
100000.00000000007
99999.99999999999
100000.0000000001
100000.00000000016
100000.00000000009
100000.00000000015
100000.00000000006
100000.00000000001
99999.99999999996
100000.0
100000.00000000001
100000.0
100000.00000000009
100000.00000000003
100000.00000000007
100000.00000000009
100000.00000000009
100000.00000000009
100000.00000000004
100000.00000000006
99999.99999999996
100000.00000000007
100000.00000000003
100000.00000000004
100000.00000000001
100000.00000000012
99999.99999999997
100000.00000000006
100000.00000000006
99999.99999999999
100000.00000000015
100000.00000000003
100000.00000000009
100000.0
100000.00000000003
100000.00000000009
99999.99999999996
100000.00000000003
100000.00000000015
100000.00000000016
100000.00000000006
100000.0000000001
99999.99999999999
100000.00000000004
100000.00000000003
100000.00000000009
99999.99999999993
99999.99999999999
100000.00000000007
100000.00000000003
100000.00000000003
100000.0
100000.00000000006
100000.00000000012
100000.00000000009
100000.00000000009
99999.99999999996
99999.99999999996
99999.9999999999
99999.99999999997
99999.99999999997
100000.00000000006
99999.99999999999
100000.00000000006
100000.00000000009
100000.00000000009
99999.99999999996
100000.00000000003
100000.00000000001
100000.00000000004
100000.00000000006
100000.00000000006
100000.00000000003
100000.00000000016
99999.99999999997
99999.9999999999
100000.0
100000.00000000009
100000.00000000015
100000.00000000009
100000.00000000015
100000.00000000009
100000.00000000012
99999.99999999996
100000.00000000007
100000.00000000003
100000.00000000009
99999.99999999997
99999.99999999996
100000.00000000007
100000.0000000001
100000.00000000015
100000.0
100000.00000000017
100000.00000000006
100000.00000000006
100000.00000000012
100000.00000000006
100000.00000000004
100000.00000000007
100000.00000000001
100000.00000000006
99999.99999999997
100000.00000000007
100000.0000000001
100000.0000000001
100000.0
100000.0000000002
100000.00000000003
100000.00000000007
100000.00000000003
100000.00000000007
100000.00000000009
100000.00000000006
100000.00000000001
100000.0000000001
100000.00000000001
100000.00000000016
100000.00000000009
100000.0000000001
100000.00000000012
100000.00000000004
99999.99999999999
100000.00000000004
100000.00000000006
99999.99999999997
100000.00000000009
100000.00000000009
100000.00000000006
100000.00000000006
100000.00000000004
99999.99999999988
99999.99999999993
100000.00000000012
99999.99999999996
100000.0000000001
100000.00000000009
100000.00000000015
100000.00000000001
100000.00000000003
100000.0000000001
99999.99999999991
100000.00000000003
100000.0000000001
99999.99999999999
100000.0000000001
100000.00000000012
100000.00000000009
100000.00000000016
100000.00000000004
100000.00000000007
100000.00000000003
100000.0000000002
100000.00000000016
100000.00000000001
100000.0000000001
100000.00000000001
100000.00000000003
100000.00000000009
100000.00000000009
99999.99999999996
99999.99999999997
100000.00000000003
100000.0000000001
100000.0000000001
100000.00000000009
99999.99999999997
100000.0
100000.00000000007
99999.99999999999
100000.00000000007
100000.00000000004
100000.00000000001
99999.99999999996
99999.99999999997
100000.0
100000.00000000007
99999.99999999999
100000.00000000006
100000.00000000013
100000.00000000004
100000.00000000003
100000.00000000006
100000.0000000001
99999.99999999997
99999.99999999996
100000.00000000001
100000.00000000003
100000.00000000001
100000.00000000023
100000.00000000019
100000.00000000001
100000.00000000001
100000.00000000006
100000.00000000003
100000.00000000004
100000.00000000012
100000.0
100000.00000000009
99999.99999999991
100000.00000000003
99999.99999999994
100000.00000000006
99999.99999999994
99999.99999999996
100000.00000000007
100000.00000000004
100000.00000000007
100000.00000000009
100000.00000000003
100000.00000000012
100000.00000000012
100000.0000000001
100000.00000000012
100000.00000000003
99999.99999999993
100000.00000000001
100000.00000000009
100000.00000000003
100000.00000000009
100000.00000000023
100000.00000000003
100000.00000000029
100000.00000000004
99999.99999999996
100000.00000000009
100000.00000000015
100000.00000000009
100000.00000000003
100000.00000000006
100000.00000000009
99999.99999999997
100000.00000000007
100000.00000000001
100000.00000000001
100000.00000000003
100000.0
100000.00000000001
99999.99999999999
100000.00000000001
100000.00000000009
99999.99999999994
100000.00000000016
100000.0000000001
100000.00000000001
100000.00000000015
99999.99999999999
100000.00000000009
100000.00000000009
100000.00000000006
100000.00000000003
100000.00000000007
100000.00000000017
100000.00000000001
100000.00000000015
100000.00000000004
100000.00000000001
100000.00000000009
100000.00000000003
100000.00000000012
100000.0000000001
100000.0
100000.00000000007
99999.99999999996
99999.99999999993
100000.00000000001
99999.99999999996
99999.99999999997
100000.0000000002
100000.0
100000.00000000015
100000.00000000006
100000.00000000022
100000.00000000001
100000.0
100000.0000000001
100000.00000000003
99999.99999999996
100000.00000000007
100000.00000000019
99999.99999999996
100000.00000000015
100000.00000000012
100000.00000000003
100000.00000000015
100000.00000000004
100000.00000000006
100000.00000000012
100000.00000000012
100000.00000000006
100000.00000000003
100000.00000000022
100000.00000000003
99999.99999999996
100000.00000000003
99999.99999999994
100000.00000000009
100000.00000000007
100000.0
100000.00000000001
99999.99999999997
100000.00000000003
99999.99999999997
99999.99999999996
100000.00000000009
100000.00000000003
100000.00000000003
99999.99999999999
100000.00000000015
100000.00000000016
100000.0000000001
100000.00000000009
100000.00000000019
100000.00000000001
100000.00000000007
100000.00000000004
100000.00000000003
100000.00000000006
100000.0
99999.99999999997
100000.00000000023
100000.00000000015
100000.00000000003
99999.99999999997
100000.00000000003
100000.00000000009
100000.00000000004
100000.00000000001
100000.00000000001
100000.00000000003
99999.99999999991
100000.00000000003
100000.00000000003
100000.00000000001
100000.00000000015
100000.0000000001
100000.00000000006
99999.99999999997
100000.00000000009
100000.00000000016
100000.00000000006
99999.99999999996
100000.00000000004
100000.00000000007
100000.00000000004
100000.00000000016
99999.99999999997
100000.00000000004
100000.00000000003
100000.00000000003
100000.0
99999.99999999999
99999.99999999996
100000.00000000003
100000.00000000009
100000.0
100000.00000000012
100000.00000000003
100000.00000000017
100000.00000000015
99999.99999999996
100000.00000000022
100000.00000000006
100000.00000000009
100000.00000000004
100000.00000000003
100000.00000000001
100000.00000000009
100000.00000000006
100000.00000000001
100000.00000000001
100000.00000000007
100000.00000000006
99999.99999999997
99999.99999999997
100000.0000000001
100000.0000000001
100000.00000000013
100000.00000000013
100000.00000000006
100000.00000000015
100000.00000000006
99999.99999999999
100000.00000000001
100000.00000000009
99999.99999999996
100000.00000000004
100000.00000000017
99999.99999999996
100000.00000000009
100000.00000000022
100000.00000000009
100000.00000000015
100000.00000000006
100000.00000000007
99999.99999999996
100000.00000000001
100000.00000000001
100000.00000000017
100000.00000000004
100000.00000000003
100000.00000000004
100000.0000000001
100000.00000000003
100000.00000000015
100000.0
100000.00000000009
100000.00000000006
100000.00000000006
100000.00000000009
100000.0000000001
100000.00000000009
100000.0000000001
100000.00000000009
100000.0000000001
100000.00000000007
100000.00000000019
100000.00000000003
100000.00000000017
100000.00000000012
99999.99999999996
99999.99999999996
100000.00000000004
100000.00000000009
100000.00000000003
100000.0000000001
100000.00000000012
100000.00000000012
100000.0000000001
100000.0000000002
99999.99999999999
99999.99999999994
99999.99999999999
100000.00000000007
100000.00000000009
100000.0
100000.0000000001
100000.00000000015
100000.00000000012
100000.00000000015
100000.00000000004
100000.0
99999.99999999993
99999.99999999994
100000.00000000012
100000.00000000007
100000.00000000007
100000.00000000009
100000.00000000007
100000.00000000016
100000.00000000016
100000.00000000012
100000.0000000001
100000.00000000016
99999.99999999999
100000.00000000003
99999.99999999993
99999.99999999999
100000.00000000009
100000.00000000001
100000.00000000003
100000.00000000016
100000.00000000015
100000.00000000003
100000.00000000015
100000.00000000015
100000.00000000012
100000.00000000001
100000.00000000003
99999.99999999996
99999.99999999991
100000.00000000003
100000.00000000016
100000.0
100000.00000000003
100000.00000000015
100000.0000000001
100000.00000000013
100000.00000000009
100000.00000000019
100000.00000000019
99999.99999999997
99999.99999999994
100000.0000000001
100000.00000000015
100000.00000000012
100000.00000000012
100000.0000000001
100000.00000000009
100000.00000000003
100000.00000000003
100000.00000000009
100000.00000000015
99999.99999999993
100000.00000000006
100000.00000000012
100000.00000000007
100000.00000000009
100000.00000000007
100000.00000000009
100000.00000000022
99999.99999999996
99999.99999999999
100000.00000000012
100000.00000000001
99999.99999999997
100000.0
100000.00000000003
100000.00000000006
100000.00000000004
100000.00000000003
100000.0000000001
100000.00000000004
100000.0000000001
100000.00000000007
100000.00000000009
100000.00000000012
100000.00000000007
100000.00000000006
99999.99999999996
100000.00000000009
99999.99999999994
100000.00000000009
100000.00000000001
100000.0
100000.00000000015
99999.99999999996
100000.00000000003
100000.00000000004
100000.00000000017
100000.00000000015
100000.00000000003
99999.99999999997
100000.0000000001
100000.00000000015
99999.99999999999
100000.00000000003
100000.00000000015
100000.0
100000.00000000001
100000.0000000001
100000.00000000007
100000.00000000001
100000.00000000009
100000.0000000001
100000.00000000007
99999.99999999997
99999.9999999999
99999.99999999991
100000.00000000004
100000.00000000001
100000.0000000002
100000.0000000001
100000.00000000025
100000.00000000017
100000.0000000001
100000.00000000022
100000.00000000007
100000.00000000009
100000.00000000007
100000.00000000007
100000.00000000007
100000.00000000006
100000.00000000003
100000.00000000004
100000.00000000009
100000.00000000003
100000.0000000001
100000.00000000012
100000.00000000012
100000.00000000012
100000.00000000003
100000.00000000009
100000.00000000012
100000.00000000007
100000.00000000003
99999.99999999997
100000.00000000012
100000.00000000001
100000.00000000006
100000.00000000004
100000.00000000016
100000.00000000004
99999.99999999997
100000.0
100000.00000000016
99999.99999999994
100000.00000000004
100000.00000000003
100000.00000000003
100000.00000000003
100000.00000000007
100000.00000000003
100000.00000000012
100000.00000000003
100000.00000000012
100000.0000000001
100000.00000000006
100000.00000000003
99999.99999999997
100000.00000000004
100000.00000000017
100000.0000000001
100000.00000000006
100000.00000000007
100000.00000000009
100000.0000000001
100000.00000000003
100000.00000000007
100000.00000000015
100000.00000000007
100000.0000000001
100000.00000000006
100000.00000000012
100000.00000000015
100000.00000000016
100000.00000000015
99999.99999999996
100000.00000000001
100000.00000000019
100000.00000000003
100000.00000000006
100000.00000000009
100000.0000000001
100000.00000000001
100000.0
100000.00000000012
100000.00000000012
100000.0
100000.00000000017
100000.00000000006
99999.99999999994
100000.00000000015
100000.00000000003
99999.99999999994
100000.00000000007
100000.00000000006
100000.00000000006
100000.00000000009
100000.00000000012
100000.00000000007
100000.00000000006
100000.00000000001
100000.00000000012
100000.00000000003
100000.00000000006
100000.00000000006
100000.00000000009
100000.00000000015
100000.00000000006
100000.0000000001
100000.00000000016
100000.00000000009
100000.00000000009
100000.00000000012
100000.0
100000.00000000009
100000.00000000015
100000.00000000006
100000.00000000003
100000.0000000001
100000.00000000004
100000.00000000013
100000.0
100000.00000000001
100000.00000000012
100000.00000000003
100000.0000000001
100000.00000000015
100000.00000000004
100000.00000000006
100000.00000000006
100000.00000000007
100000.00000000006
100000.00000000009
100000.00000000017
100000.00000000006
100000.0
100000.00000000013
100000.00000000009
100000.00000000007
99999.99999999993
99999.99999999993
100000.00000000016
100000.00000000017
99999.99999999996
99999.99999999994
99999.99999999996
100000.00000000003
99999.99999999999
100000.00000000015
100000.00000000003
100000.00000000003
100000.00000000015
100000.00000000015
99999.99999999996
100000.00000000015
100000.00000000016
100000.0000000001
100000.00000000009
100000.0000000001
100000.00000000012
100000.00000000006
99999.99999999996
100000.0000000001
99999.99999999996
100000.00000000006
100000.00000000006
100000.00000000017
100000.00000000003
100000.00000000006
100000.00000000009
100000.00000000009
100000.00000000001
99999.99999999988
100000.00000000015
100000.00000000003
99999.99999999999
100000.00000000016
100000.00000000003
100000.00000000012
100000.0000000001
100000.00000000015
100000.00000000015
100000.00000000006
100000.00000000015
100000.00000000007
100000.00000000001
100000.0
100000.0
100000.00000000015
99999.99999999991
100000.00000000017
100000.00000000016
100000.0000000001
100000.00000000012
100000.00000000003
100000.00000000007
99999.99999999999
100000.00000000006
99999.99999999996
100000.00000000015
99999.99999999996
100000.00000000006
100000.00000000006
100000.00000000012
100000.00000000001
100000.00000000016
99999.99999999996
100000.00000000017
100000.0000000001
100000.00000000009
100000.00000000009
100000.00000000006
100000.00000000003
100000.00000000003
100000.00000000009
100000.00000000009
100000.00000000015
100000.0000000001
100000.0
100000.00000000006
100000.00000000022
100000.00000000001
100000.00000000006
99999.99999999996
100000.00000000003
100000.00000000007
100000.0000000001
100000.00000000007
99999.99999999997
100000.0000000001
100000.0000000001
100000.0
100000.00000000001
100000.00000000009
100000.00000000006